# vtk DataFile Version 3.0
vtk output
ASCII
DATASET UNSTRUCTURED_GRID
POINTS 1300 float
-0.428643 0.867562 0.252192 0.163068 0.941522 0.294866 0.480185 -0.417245 -0.771576 
0.180464 -0.81738 0.547104 0.00691543 0.308643 -0.951153 -0.0774789 0.753409 0.652971 
0.666458 -0.712473 0.219581 -0.183616 0.235574 0.954353 0.77766 -0.340159 -0.528712 
0.366696 -0.930264 -0.0119849 0.626434 -0.777884 0.04977 -0.952911 -0.210041 -0.218731 
-0.370314 0.910747 -0.182777 0.504839 -0.733045 -0.455833 0.997709 0.0645296 -0.0203322 
0.159503 -0.982223 -0.0989833 -0.629185 0.724317 0.281942 -0.801884 -0.596 0.0420242 
-0.385044 0.0184924 -0.922713 0.603404 0.418693 -0.678675 0.966636 0.218674 0.133401 
-0.797656 0.0977778 0.595134 0.216893 -0.0634751 -0.974129 0.187587 -0.763472 0.617998 
-0.714115 -0.55403 -0.427891 0.585285 -0.809884 -0.0390942 0.845216 0.014077 -0.534239 
0.477806 0.479562 -0.736018 -0.434347 0.886725 0.158306 0.115504 -0.729118 0.674571 
-0.594657 -0.331872 0.732287 -0.41446 -0.140313 -0.899186 0.165233 -0.986247 -0.0037876 
-0.0900149 0.455243 0.885806 -0.135403 0.897156 -0.420449 0.579701 -0.480785 0.65787 
0.524003 -0.193474 -0.829451 -0.942346 -0.146228 -0.301001 0.540254 0.759321 -0.362708 
0.943555 0.0358787 -0.329267 0.651613 0.757041 0.0478427 -0.529305 0.827605 -0.18683 
0.394233 0.470592 -0.789382 0.444646 -0.280506 0.85065 0.988797 -0.108402 -0.102613 
0.101595 0.483561 0.869395 0.847148 0.498775 -0.183203 0.956749 -0.0542027 -0.285819 
0.258015 0.928237 0.267963 -0.435367 0.780784 -0.448142 -0.777947 -0.626278 -0.0507334 
-0.876843 -0.254338 -0.407993 0.619522 0.783563 -0.0471327 -0.698857 -0.692259 0.179933 
0.763862 0.585021 -0.272516 -0.144038 -0.180566 0.972959 -0.982823 0.085909 0.163335 
-0.773154 0.57917 0.258447 -0.229021 -0.110547 -0.967124 -0.09185 0.5543 0.827233 
0.629009 0.718616 0.296545 -0.57645 -0.795461 -0.186941 0.6181 0.102184 -0.77943 
-0.728455 -0.59221 -0.344442 0.595541 0.68105 -0.42603 0.805565 -0.0543818 -0.590006 
0.553612 0.377259 -0.742422 0.588793 -0.703965 0.397185 -0.366509 -0.693377 -0.620403 
0.541742 0.495866 -0.678699 0.552023 -0.830688 0.0722988 -0.103629 -0.493711 -0.863429 
-0.408182 0.743155 0.530196 0.694421 0.717089 -0.0596807 -0.348734 0.846874 0.401483 
-0.68076 0.630451 -0.372958 0.23214 0.645224 -0.727871 0.0863149 -0.885886 0.455803 
0.639292 0.619584 0.455436 0.928239 -0.207566 -0.30869 -0.495641 -0.457941 0.73799 
0.819433 -0.55846 -0.129044 0.665712 0.163999 0.727964 0.752863 0.404352 0.519324 
-0.692339 0.658898 0.294144 -0.741607 0.657723 -0.131983 -0.570201 -0.741539 0.35354 
-0.228736 -0.174864 0.957655 -0.851269 -0.496086 -0.170998 -0.477486 0.485285 0.732465 
-0.671782 -0.10396 -0.733417 -0.895165 0.293001 0.335902 0.558076 -0.771879 -0.304556 
-0.357675 0.933835 0.00454676 -0.81143 -0.206391 0.546795 0.852057 -0.298022 0.430328 
0.835885 -0.411727 -0.363011 -0.548055 -0.643675 0.534152 0.953253 0.257441 -0.158218 
0.70329 0.696203 0.143822 0.762004 0.0109883 -0.647479 -0.51442 0.728909 0.451735 
-0.747362 0.587549 -0.310221 -0.26659 -0.695739 0.666991 -0.937042 0.103704 -0.333464 
-0.916644 -0.234577 -0.323633 0.92057 0.349088 -0.175179 0.0677909 -0.255546 0.964417 
0.203638 0.80794 -0.55296 -0.590789 -0.147626 -0.793206 0.0305882 0.908675 0.416382 
-0.452377 -0.0289206 -0.891357 0.905033 0.385122 0.180543 0.711846 -0.420848 -0.562283 
-0.746402 -0.659835 0.0866203 0.294541 -0.801628 0.520228 0.723941 0.658396 -0.20597 
0.76505 0.548996 0.336604 -0.812948 0.435651 -0.386424 -0.351067 -0.584395 -0.731597 
-0.845911 0.145968 -0.512959 -0.500533 -0.777891 -0.379938 -0.295188 0.511374 -0.807069 
0.178419 -0.383442 -0.906167 0.0770191 0.859128 0.505933 -0.032993 0.0885332 0.995527 
0.621399 0.712757 -0.325333 -0.0641611 -0.627408 0.776043 0.0724189 -0.379127 -0.922507 
-0.813057 -0.102963 0.573008 -0.526133 -0.587965 0.614395 0.823386 -0.474351 0.31149 
-0.298367 -0.882962 0.362431 -0.166884 0.844196 0.509395 0.769963 0.430515 -0.470971 
-0.729187 -0.333436 -0.597584 -0.931003 -0.319714 -0.176116 -0.397187 -0.324424 -0.858482 
0.456534 0.678149 0.575926 0.999138 -0.0392988 0.0133853 -0.36205 0.552584 -0.750714 
-0.881756 0.28222 -0.377964 -0.330269 -0.906378 0.263443 -0.0877744 -0.40628 0.909523 
-0.246499 0.860336 0.446162 0.562049 0.826717 0.0253096 0.89824 0.160915 0.408988 
-0.155367 0.247689 -0.956301 0.849627 -0.495347 -0.181012 -0.939143 -0.335727 0.0727908 
-0.0317223 -0.337822 -0.940675 -0.998473 -0.0545347 -0.00886886 0.372769 0.416221 0.829339 
0.727972 0.582627 -0.361389 0.72812 -0.512894 0.454732 0.105168 -0.950242 0.293223 
-0.0382469 0.732093 -0.68013 -0.0557565 0.929049 0.365731 0.496664 -0.732826 0.46507 
0.899857 0.0470316 -0.433642 -0.341195 0.912934 0.223913 -0.327579 -0.22103 0.918606 
0.800192 -0.211274 -0.561298 -0.795723 -0.309371 0.520686 -0.501342 -0.0811029 0.86144 
-0.406118 0.108956 -0.907302 -0.17651 0.954409 -0.240722 -0.866235 -0.146353 0.477721 
0.354408 0.334315 0.873286 0.771119 -0.133335 -0.622573 0.877904 0.417957 -0.233657 
0.903477 -0.380992 0.196405 -0.42153 -0.806607 -0.414363 -0.519942 0.533695 0.666956 
-0.274658 0.948702 0.156613 0.271097 0.0935221 0.957998 -0.802549 0.315226 -0.506505 
0.402835 0.59404 0.696305 0.941964 -0.32978 -0.062846 0.543468 0.8179 -0.188895 
0.844581 -0.487369 0.221709 0.889093 -0.369785 -0.269765 0.693676 -0.610773 0.381798 
-0.299847 0.894796 -0.330804 0.719458 -0.0624246 -0.691725 -0.0530717 0.635068 0.770631 
0.0302715 0.675645 -0.736606 -0.744961 -0.030374 0.666416 -0.743737 0.63684 0.203201 
0.401693 -0.462362 0.790484 0.696727 0.330475 0.636677 0.0420985 -0.00360767 -0.999107 
0.919082 0.263283 0.293206 -0.0175249 0.809622 -0.58669 0.597549 -0.190949 0.778764 
0.744076 -0.492444 -0.451498 -0.380635 -0.416408 -0.825664 0.496183 -0.0918672 -0.863344 
0.982706 -0.050224 -0.178228 0.475709 0.392097 -0.787376 0.97939 0.0995492 0.175744 
0.957817 0.187084 0.218145 -0.544991 -0.794774 0.267057 0.427514 -0.766048 -0.480003 
-0.459474 0.824671 0.32985 -0.130908 0.118576 -0.984278 0.474491 0.42028 0.773449 
0.538211 0.822905 0.182088 -0.157266 -0.98482 -0.073464 -0.797674 -0.436173 0.416497 
0.0619601 -0.996724 -0.0519897 0.743149 -0.66761 -0.04502 -0.6364 -0.160436 0.754491 
0.2903 -0.111144 0.950459 -0.931118 0.273696 0.241058 0.673031 -0.664292 0.325185 
-0.603584 0.678168 0.419254 -0.0747816 0.0395283 -0.996416 0.328511 0.194818 -0.92419 
0.081244 -0.839809 0.536768 -0.384407 0.37236 0.844736 -0.0303969 0.976291 0.214319 
0.46135 -0.82331 0.33063 -0.186652 0.952425 0.240932 -0.0298552 -0.418963 -0.907512 
0.737969 -0.250252 -0.626718 -0.147326 -0.927621 -0.343242 0.255028 0.57028 -0.780859 
-0.382957 -0.534566 0.753381 -0.450995 0.882784 -0.131518 -0.184288 0.731461 0.656508 
-0.443619 -0.869347 -0.217801 -0.654418 0.409032 0.635948 0.684555 -0.565351 -0.460177 
-0.922487 0.293952 -0.25022 -0.0829141 -0.698638 0.710655 0.986579 0.076502 -0.144256 
0.371089 -0.235476 -0.898245 0.571775 0.0854968 0.815943 0.1173 -0.773088 -0.623358 
0.142866 0.256278 0.955987 -0.24888 -0.718365 -0.649623 0.30584 0.659841 0.686347 
0.080565 0.965833 0.246325 0.365169 0.876038 -0.314973 -0.289044 -0.0323087 -0.95677 
-0.203062 0.412117 0.888215 0.432391 0.884251 0.17646 -0.655909 -0.555472 -0.51111 
-0.749578 -0.147511 -0.64527 0.144265 0.97497 -0.169176 0.423576 -0.706698 -0.566711 
0.150379 0.44018 -0.885227 -0.824024 0.511497 -0.24363 -0.352354 0.931144 -0.0938988 
-0.696192 -0.663521 -0.273965 -0.986415 0.0102282 -0.163955 -0.532915 -0.529038 -0.660394 
0.707467 -0.170064 -0.68598 -0.499262 0.351505 0.791948 0.603107 0.598685 -0.527104 
0.25782 -0.596664 0.759948 -0.435249 0.4279 0.792124 0.0165511 0.998837 0.0452734 
0.294727 -0.951733 -0.0856774 -0.193114 0.333805 0.922649 0.466633 0.762848 0.447567 
0.0802828 0.896607 -0.435488 0.720276 -0.328842 -0.610791 -0.619961 -0.630365 0.467214 
-0.494565 0.257285 -0.830186 0.0238063 -0.616713 0.786828 -0.0790084 0.965545 -0.247953 
-0.902135 -0.00471043 0.431428 -0.490424 -0.868988 -0.0659124 0.428666 -0.900513 -0.0729543 
0.396644 -0.904534 0.156497 -0.940148 0.189389 0.283291 -0.0731469 -0.762112 -0.6433 
-0.430435 -0.62482 0.651403 0.496727 -0.787067 -0.365768 -0.765133 -0.403902 -0.501433 
0.835646 0.289046 0.467064 0.337327 -0.938147 0.0780455 -0.00293603 0.540821 -0.841132 
0.639611 -0.334169 -0.692263 0.135854 0.0431863 0.989787 0.631392 -0.41058 0.657851 
0.265832 0.963529 0.0307468 0.874038 0.106297 0.474086 -0.431417 0.585988 -0.685928 
0.382788 -0.00124534 -0.923835 0.471603 0.577309 -0.666562 -0.391156 -0.761415 0.516957 
0.00930391 -0.895046 -0.445876 -0.650891 -0.378491 -0.658092 0.171091 0.905273 -0.388854 
-0.203194 0.661249 -0.722123 -0.585249 0.144008 -0.797964 -0.666855 -0.738386 0.100456 
-0.302748 0.755278 -0.58129 0.755775 0.206446 -0.621437 -0.715671 0.413591 0.562812 
-0.142824 -0.596422 0.789862 -0.336289 0.6813 -0.650184 0.710256 0.555401 0.432511 
-0.981771 0.189388 -0.0160864 0.233348 0.844883 0.481375 -0.274113 -0.810138 0.518207 
0.83938 -0.124303 0.52914 0.476654 -0.640813 0.601797 0.809886 0.381793 0.445331 
-0.754423 -0.40454 0.516907 -0.138489 0.979119 -0.148821 -0.0606215 -0.0110303 0.9981 
-0.210404 0.146656 -0.966552 0.791382 -0.3476 0.502881 -0.303315 -0.498437 0.812133 
-0.74059 0.479564 -0.470685 0.340742 -0.132747 -0.930738 0.207541 -0.543606 0.813277 
0.692083 0.0396848 -0.720726 -0.952507 0.0250524 -0.303483 0.768927 0.245124 0.59048 
-0.952924 0.246451 -0.17663 -0.790476 0.602499 0.110192 -0.718719 -0.695295 0.00295567 
-0.752656 0.180364 0.633228 0.146201 0.879675 0.452545 -0.288528 0.812039 0.50729 
0.357214 -0.286132 0.889116 0.203455 0.959524 0.19473 -0.422841 -0.149203 0.893837 
0.114642 -0.0648496 0.991288 0.646243 -0.633855 -0.424968 0.930738 -0.240838 0.27518 
0.312957 0.395498 -0.863504 -0.530499 0.402337 -0.74612 0.856735 0.0125118 0.515605 
0.243951 0.707591 -0.663176 -0.659281 0.364555 -0.657608 0.0459832 0.756504 -0.652371 
[...]
POINT_DATA 1300
FIELD FieldData 2
c0 1 1300 float
0.860364 -0.885372 0.609091 -0.89213 0.524297 0.844387 -0.263924 0.129021 -0.485002 
0.145406 0.285602 -0.46345 -0.554345 -0.490442 0.744598 -0.936515 0.26801 -0.835813 
-0.134962 0.805944 0.276 0.867346 0.527499 -0.730161 -0.244476 0.0985643 -0.552507 
0.929767 -0.314364 -0.203655 -0.918534 0.123675 0.925494 0.160497 0.372566 0.578536 
-0.921028 0.808656 -0.856064 -0.0844718 -0.642809 0.261602 -0.54569 0.238667 0.120484 
-0.981514 0.425353 -0.721556 0.135251 -0.173474 -0.873318 -0.233801 -0.128242 -0.148157 
0.655375 -0.804635 -0.779145 0.361883 -0.348389 -0.731306 -0.900201 0.592733 -0.650789 
-0.229147 0.0913264 0.371754 0.401289 -0.457147 0.354509 0.308907 -0.77973 0.446811 
-0.442544 -0.263252 0.187466 -0.0862707 0.402588 0.784906 0.757414 0.776072 -0.796018 
0.374103 0.338699 0.780591 -0.069891 -0.290142 -0.330113 -0.225434 0.239125 0.313464 
-0.286928 -0.107844 0.27824 -0.86207 -0.879979 -0.773119 -0.940045 -0.17499 0.998454 
-0.288335 -0.631705 -0.14228 0.339735 0.788824 0.902892 0.539183 0.00482613 0.229531 
0.184297 0.933913 0.0938992 0.772679 0.00979554 -0.485566 0.0591391 0.0946159 0.928106 
0.197998 -0.398548 0.889072 -0.389881 0.181682 0.901505 0.207983 0.410655 -0.84102 
-0.162338 -0.838015 0.511901 -0.352455 -0.0389965 0.446623 -0.0359729 -0.969909 0.75597 
-0.422035 -0.30966 -0.626594 0.826724 0.394676 -0.525825 -0.785442 -0.836836 0.37359 
-0.653995 -0.206166 0.639973 -0.288406 -0.366885 -0.090303 0.860774 0.00631951 0.564901 
0.452305 -0.818338 0.525369 -0.784014 0.327855 0.990603 -0.657465 0.290465 -0.171797 
-0.43446 -0.236836 -0.580651 0.668216 0.960774 0.520743 0.0124357 0.461585 -0.561356 
0.672066 0.103341 0.977587 -0.793386 -0.845034 -0.580565 -0.865681 0.934909 0.601891 
-0.178132 0.815393 0.351854 -0.292307 0.675311 -0.438506 -0.596372 -0.477199 -0.931543 
-0.162529 0.0460751 -0.717654 0.0798101 0.285423 -0.704648 -0.377115 -0.233662 -0.491268 
0.569091 -0.144727 0.92864 -0.857981 -0.222526 -0.820943 -0.877535 -0.657569 -0.0701475 
-0.284797 0.871181 0.0808081 0.470133 -0.71661 -0.945577 0.786434 -0.77087 -0.873675 
0.55171 0.238168 -0.396849 -0.825519 -0.91036 0.348341 0.137032 -0.509717 -0.042058 
-0.64613 -0.334524 0.833838 0.468487 0.543288 0.593618 0.0045511 0.309248 -0.977249 
0.24045 0.218133 -0.222621 -0.697989 0.120058 0.0630943 0.836671 -0.21439 -0.0919389 
0.257138 -0.779751 -0.91431 -0.264347 0.0506529 -0.498784 -0.0244312 0.421219 -0.445647 
-0.466162 0.533038 -0.280176 -0.875257 -0.467792 -0.0414219 -0.991407 0.690826 -0.0866208 
-0.844776 0.442467 0.788392 0.995798 -0.324929 -0.690489 0.872952 -0.787651 -0.937563 
-0.951999 0.0690902 -0.715311 -0.334659 -0.907403 -0.848292 0.014692 -0.829555 -0.872128 
0.779725 -0.557638 0.563401 0.61989 -0.900485 0.75668 -0.733535 -0.370312 0.35736 
0.400689 0.0560261 0.726905 0.929266 -0.263111 -0.13149 0.296295 0.892979 0.136006 
0.787043 0.899698 0.136074 0.109663 0.78289 0.881297 -0.503647 -0.882875 -0.125568 
0.471486 0.922671 -0.788802 -0.541314 -0.0256251 -0.741835 0.736884 0.479155 0.202301 
-0.971766 -0.684022 -0.460194 0.927561 0.637711 0.832968 -0.185359 0.676657 -0.937949 
0.11031 0.766286 0.535915 0.784473 0.671011 0.586751 0.71254 0.735821 0.0439891 
0.86927 0.810176 0.540055 0.737474 0.911861 0.996998 0.146367 0.442054 0.253283 
-0.834231 0.521491 0.341903 -0.0712546 -0.769552 -0.0221161 -0.39745 0.829338 0.734717 
0.746533 -0.607974 0.273536 0.783873 -0.477253 -0.877085 0.736548 -0.381367 -0.898151 
-0.960366 0.192065 0.149273 -0.455571 -0.582562 0.0336225 -0.50459 0.537044 -0.0373651 
0.439632 -0.455866 0.261218 0.986092 -0.817968 -0.469194 -0.0512813 -0.887029 0.0592503 
0.979188 0.330319 -0.386117 0.657964 0.492396 0.413025 0.706762 -0.971172 0.970044 
0.959388 -0.989299 -0.497112 -0.541031 0.351807 -0.325072 -0.307967 0.819929 -0.194379 
0.790511 0.170538 -0.451585 0.0384751 0.422041 -0.265624 0.171362 -0.498995 0.910053 
-0.382164 -0.10426 -0.448827 -0.826657 0.747549 0.989402 0.311631 -0.237246 -0.0493034 
0.846916 -0.178456 0.649872 0.0161596 -0.944634 0.506161 -0.513367 0.998383 -0.88894 
0.759884 -0.654069 -0.139797 -0.521522 -0.358949 -0.341736 0.8827 -0.0319986 0.961457 
0.323875 -0.164761 -0.347201 -0.645632 -0.297386 -0.543525 -0.449338 -0.0999577 0.688552 
0.421338 -0.15731 0.717976 -0.0665816 -0.805976 -0.0997715 -0.0996186 0.694423 0.955221 
-0.478366 -0.294751 -0.000216297 0.915729 0.594325 0.113042 0.98512 -0.750597 0.799717 
0.446341 0.533098 -0.265584 -0.601617 0.700205 0.814825 0.861003 0.480705 0.764322 
-0.435389 -0.118433 -0.703273 -0.075025 0.539518 -0.820386 -0.62784 0.660946 0.995193 
0.343948 -0.764223 0.165334 0.716828 0.629063 -0.83764 -0.518547 0.606229 0.250201 
0.806716 0.891122 0.410165 0.715284 -0.889304 0.0896267 0.791183 -0.626878 0.984328 
0.692111 -0.572265 0.402954 0.486766 -0.305828 -0.0662506 -0.717011 -0.0828008 0.480586 
-0.574607 0.0185772 -0.644873 0.23635 0.960273 0.446203 -0.935148 0.972179 -0.4256 
-0.837386 0.370499 -0.978148 -0.804872 -0.585599 -0.0111986 0.231439 -0.0289773 -0.0809199 
0.250037 0.858135 0.487501 -0.59534 -0.750744 0.659892 -0.987834 0.46672 0.25296 
-0.729343 -0.697095 -0.379816 -0.193635 0.684438 0.0717263 -0.016671 0.521218 -0.546392 
0.587601 -0.224059 -0.30413 -0.116838 0.71464 0.831861 -0.643489 -0.0698178 -0.951226 
0.622315 -0.044542 0.105983 -0.584382 0.637083 0.721397 -0.838525 0.862672 0.461137 
0.664975 -0.657656 -0.795339 -0.325176 -0.0699391 -0.654183 0.852593 0.151606 0.500387 
-0.555402 0.374659 -0.561069 -0.461551 -0.58095 0.686315 -0.446841 -0.581344 -0.769756 
-0.350706 0.856505 0.96281 0.0736196 -0.539783 -0.319818 -0.285993 -0.497625 0.415594 
0.201447 0.797686 0.293032 -0.883217 -0.234657 0.504461 0.621713 -0.486316 0.333686 
0.482538 0.491502 0.851067 -0.752228 -0.297153 -0.792365 -0.938287 0.959509 -0.699386 
-0.98074 0.253649 0.669162 0.652592 0.315987 0.218392 -0.73711 -0.638444 -0.394403 
0.616814 -0.737679 0.268512 -0.2323 0.71258 -0.52996 -0.486489 0.233665 0.154551 
-0.659958 -0.718194 0.280092 0.00378697 0.506116 -0.222604 0.528767 -0.951556 0.226265 
0.73731 0.402905 0.408543 0.706258 -0.0207573 0.0851737 -0.538736 0.733113 0.201198 
-0.381928 0.741006 0.548828 0.864852 0.189413 -0.762483 -0.206361 -0.13978 -0.879766 
0.309647 -0.245643 0.982247 -0.440765 0.749015 -0.300297 0.515242 0.725251 0.791134 
0.4302 -0.134006 0.735547 0.653196 0.37623 -0.809323 -0.997027 -0.360138 0.00400671 
0.673547 0.321971 -0.301799 -0.065033 -0.827138 0.0511998 0.399332 0.219885 0.811556 
-0.257814 0.984448 0.454541 -0.663117 0.962836 0.467618 0.715225 -0.662321 0.590065 
-0.408304 0.404882 -0.361631 0.977051 0.533763 0.101828 -0.994452 -0.83297 0.571913 
-0.174693 -0.317324 -0.436837 0.338178 -0.723973 0.00239346 -0.821772 -0.690328 -0.872193 
0.399475 0.522132 -0.357014 -0.427209 0.180199 -0.80678 0.0389932 0.00813015 0.704008 
-0.391851 -0.569052 -0.692594 0.207917 0.192846 0.452016 -0.945373 0.691637 0.487368 
0.929757 -0.794354 -0.197973 0.972892 -0.0285601 0.453331 0.52031 -0.444847 0.504594 
0.820796 -0.942041 -0.140013 -0.641668 0.413777 -0.378789 0.714689 0.580311 0.455259 
0.479469 0.893359 0.135759 0.710533 0.962607 0.677296 -0.869092 0.503736 -0.317009 
-0.599924 -0.889391 0.80662 0.0968837 0.830199 0.440576 -0.0556876 -0.133097 -0.657755 
0.655485 0.160942 0.945674 -0.310353 -0.581505 -0.549842 -0.207597 -0.0873232 0.714389 
0.176041 -0.00800835 -0.456417 -0.0379214 -0.279468 0.525058 -0.682539 -0.997927 0.0593485 
-0.493355 0.900496 0.660339 0.294376 -0.180566 0.136895 0.185564 -0.469477 0.825261 
0.940826 -0.701871 0.706747 0.0011225 -0.109986 -0.903581 -0.518333 -0.894066 -0.443622 
0.154083 0.614301 -0.99915 -0.932806 0.482223 -0.426121 -0.0774822 0.0419104 -0.460256 
-0.793873 0.73745 0.597767 0.474356 -0.85026 -0.353907 -0.749605 0.718771 0.246702 
-0.806636 -0.790082 -0.694845 -0.00145167 -0.361309 0.17093 -0.993089 0.830172 0.851029 
0.200564 -0.943677 0.765 0.1189 0.155538 -0.449597 0.0651356 -0.862989 -0.859055 
-0.0569928 -0.142687 0.229929 -0.0462681 -0.757583 0.555567 -0.819838 -0.0742783 0.803957 
0.437589 0.916001 0.873438 0.528501 0.0636354 0.448138 -0.454408 -0.764611 -0.397593 
0.37603 -0.705443 0.959865 -0.287522 0.729913 -0.378077 0.941334 0.249873 0.261302 
0.700105 0.0561007 0.138968 0.510347 -0.954638 -0.671195 0.445262 -0.180711 0.422654 
0.355898 -0.901334 -0.07296 0.383262 -0.850546 -0.529618 0.931901 0.941056 0.999697 
-0.482293 -0.533719 -0.822913 -0.986736 -0.0396766 0.214841 0.373041 0.0721017 0.41342 
-0.319921 0.109261 -0.469737 0.176662 0.356954 0.834393 0.565279 -0.695243 0.475224 
-0.160785 -0.0407265 -0.924422 0.421538 -0.683555 -0.596822 0.396058 0.266204 0.8973 
-0.146127 -0.36996 0.3191 -0.0162156 0.115512 0.279535 0.0989286 0.194123 -0.252248 
0.061814 -0.742869 -0.659157 -0.422442 -0.393898 0.930163 -0.845622 0.353961 0.847789 
-0.563751 0.876518 -0.0297752 -0.78889 -0.534035 -0.886065 0.388703 -0.439107 0.664943 
-0.792105 0.32101 -0.552474 -0.126857 -0.526841 -0.363448 -0.994769 0.889017 -0.57421 
0.414027 -0.661249 0.935285 -0.926487 0.240058 0.627829 0.0675089 0.252457 0.817029 
-0.242266 0.227805 -0.733123 -0.750285 0.574202 0.49053 0.617013 0.81798 -0.241642 
-0.415636 -0.050491 0.0505442 0.243388 0.170706 0.653411 -0.542087 -0.785766 0.635392 
-0.969238 0.00023878 0.34217 -0.967005 -0.0654601 0.580847 0.660253 0.241613 0.46071 
0.265531 0.963894 0.721691 -0.926994 -0.504411 0.670172 -0.229048 -0.916321 -0.738207 
-0.497869 0.565691 -0.0878907 -0.942513 -0.0828076 -0.963158 -0.280687 0.697314 -0.821219 
-0.934385 -0.272706 0.0417375 -0.0251097 -0.841778 0.538527 -0.543169 -0.730776 -0.379086 
0.675091 0.224602 -0.953254 -0.216985 0.76058 -0.786577 -0.387418 0.995095 -0.369622 
-0.305721 0.142564 -0.664893 -0.913699 -0.938405 0.836123 0.599199 -0.781294 0.253865 
0.337331 0.343693 0.714444 0.308603 -0.433925 -0.58611 0.941143 -0.979259 -0.0232638 
-0.808522 -0.918386 0.479473 0.223872 0.683255 0.53622 0.918316 -0.593397 -0.256046 
-0.081714 -0.370746 0.501781 -0.608578 -0.94151 0.0748995 -0.405993 0.222786 0.282306 
-0.671871 -0.618306 0.113482 0.863057 0.609996 -0.671069 -0.404437 -0.208199 0.88867 
-0.324689 0.0152084 0.0596401 0.971638 0.111778 -0.38474 0.620433 0.299235 -0.558615 
-0.0643015 0.167612 -0.337671 -0.742543 0.678624 -0.955608 0.451361 -0.0711641 -0.833798 
0.995339 0.56399 0.458108 -0.151919 -0.596659 -0.858088 -0.918695 0.718716 0.567005 
-0.643852 0.0653306 -0.807445 0.579102 0.684612 -0.229703 0.789232 0.818397 0.290799 
0.271397 -0.371752 0.141942 -0.789263 -0.0170242 -0.110294 0.899641 0.410755 -0.963165 
-0.133209 -0.954583 0.216374 -0.518861 -0.153466 -0.0261992 -0.726151 0.457399 0.507958 
0.190225 -0.97173 0.102581 -0.779166 0.734973 -0.884927 0.572529 0.526226 -0.0509334 
0.567539 -0.86982 -0.91228 0.905976 0.816359 -0.594432 0.0104939 0.313431 0.890625 
0.325668 0.0175676 0.735233 0.539887 0.307939 0.213047 0.298463 -0.46385 -0.964985 
-0.376602 -0.185038 -0.416606 0.555372 0.630956 0.551592 -0.568282 0.188339 0.38959 
-0.336962 0.790184 0.948765 0.976334 -0.813779 -0.168101 0.522 0.549676 -0.0191546 
0.0583344 -0.878797 -0.993169 0.793579 -0.362085 0.958468 0.61739 -0.976634 -0.372158 
0.522394 0.911949 0.465985 0.257944 -0.979957 -0.303299 -0.669116 -0.759079 -0.882409 
0.699789 0.227376 0.813592 -0.442386 0.507141 -0.16834 -0.789991 0.569531 0.804318 
-0.111122 -0.657786 -0.237067 -0.172568 -0.18446 0.94561 -0.457516 0.375787 0.75165 
-0.790171 0.475704 -0.256027 0.334089 0.00478597 -0.039745 -0.0563189 0.891039 -0.588216 
0.75302 -0.86873 -0.391295 0.390309 -0.782912 -0.211891 -0.227163 0.823267 0.483011 
-0.209247 0.702662 0.398492 -0.156536 -0.647585 0.109108 0.235572 -0.00403673 -0.952916 
-0.848294 -0.938707 -0.397731 0.907327 0.653543 -0.366093 0.879098 -0.985747 -0.82849 
-0.273337 -0.973909 0.825243 0.663576 -0.0861045 0.13816 0.080499 0.170864 0.340097 
-0.090921 0.970365 0.867221 0.264316 0.663162 -0.474067 -0.079773 0.968389 -0.884826 
0.0642186 -0.537077 -0.669359 0.591018 0.915528 -0.031856 0.652998 -0.762837 -0.449239 
-0.197066 -0.659982 0.905083 -0.391124 0.786541 0.668627 -0.999959 0.220522 0.0270115 
-0.24532 -0.742542 0.759842 0.99297 -0.00185072 -0.108029 0.225678 0.886419 0.243413 
0.759223 0.859233 0.826736 0.507084 -0.706861 -0.982487 -0.450036 0.864002 0.854078 
0.324059 0.529617 0.467158 -0.3674 -0.236724 0.426307 -0.781996 -0.00885841 0.749295 
-0.435136 0.584659 0.755273 -0.742789 0.74975 -0.791371 -0.745473 0.328124 0.826572 
0.487271 0.79222 0.449423 -0.569361 
c1 1 1300 float
0.860364 -0.885372 0.609091 -0.89213 0.524297 0.844387 -0.263924 0.129021 -0.485002 
0.145406 0.285602 -0.46345 -0.554345 -0.490442 0.744598 -0.936515 0.26801 -0.835813 
-0.134962 0.805944 0.276 0.867346 0.527499 -0.730161 -0.244476 0.0985643 -0.552507 
0.929767 -0.314364 -0.203655 -0.918534 0.123675 0.925494 0.160497 0.372566 0.578536 
-0.921028 0.808656 -0.856064 -0.0844718 -0.642809 0.261602 -0.54569 0.238667 0.120484 
-0.981514 0.425353 -0.721556 0.135251 -0.173474 -0.873318 -0.233801 -0.128242 -0.148157 
0.655375 -0.804635 -0.779145 0.361883 -0.348389 -0.731306 -0.900201 0.592733 -0.650789 
-0.229147 0.0913264 0.371754 0.401289 -0.457147 0.354509 0.308907 -0.77973 0.446811 
-0.442544 -0.263252 0.187466 -0.0862707 0.402588 0.784906 0.757414 0.776072 -0.796018 
0.374103 0.338699 0.780591 -0.069891 -0.290142 -0.330113 -0.225434 0.239125 0.313464 
-0.286928 -0.107844 0.27824 -0.86207 -0.879979 -0.773119 -0.940045 -0.17499 0.998454 
-0.288335 -0.631705 -0.14228 0.339735 0.788824 0.902892 0.539183 0.00482613 0.229531 
0.184297 0.933913 0.0938992 0.772679 0.00979554 -0.485566 0.0591391 0.0946159 0.928106 
0.197998 -0.398548 0.889072 -0.389881 0.181682 0.901505 0.207983 0.410655 -0.84102 
-0.162338 -0.838015 0.511901 -0.352455 -0.0389965 0.446623 -0.0359729 -0.969909 0.75597 
-0.422035 -0.30966 -0.626594 0.826724 0.394676 -0.525825 -0.785442 -0.836836 0.37359 
-0.653995 -0.206166 0.639973 -0.288406 -0.366885 -0.090303 0.860774 0.00631951 0.564901 
0.452305 -0.818338 0.525369 -0.784014 0.327855 0.990603 -0.657465 0.290465 -0.171797 
-0.43446 -0.236836 -0.580651 0.668216 0.960774 0.520743 0.0124357 0.461585 -0.561356 
0.672066 0.103341 0.977587 -0.793386 -0.845034 -0.580565 -0.865681 0.934909 0.601891 
-0.178132 0.815393 0.351854 -0.292307 0.675311 -0.438506 -0.596372 -0.477199 -0.931543 
-0.162529 0.0460751 -0.717654 0.0798101 0.285423 -0.704648 -0.377115 -0.233662 -0.491268 
0.569091 -0.144727 0.92864 -0.857981 -0.222526 -0.820943 -0.877535 -0.657569 -0.0701475 
-0.284797 0.871181 0.0808081 0.470133 -0.71661 -0.945577 0.786434 -0.77087 -0.873675 
0.55171 0.238168 -0.396849 -0.825519 -0.91036 0.348341 0.137032 -0.509717 -0.042058 
-0.64613 -0.334524 0.833838 0.468487 0.543288 0.593618 0.0045511 0.309248 -0.977249 
0.24045 0.218133 -0.222621 -0.697989 0.120058 0.0630943 0.836671 -0.21439 -0.0919389 
0.257138 -0.779751 -0.91431 -0.264347 0.0506529 -0.498784 -0.0244312 0.421219 -0.445647 
-0.466162 0.533038 -0.280176 -0.875257 -0.467792 -0.0414219 -0.991407 0.690826 -0.0866208 
-0.844776 0.442467 0.788392 0.995798 -0.324929 -0.690489 0.872952 -0.787651 -0.937563 
-0.951999 0.0690902 -0.715311 -0.334659 -0.907403 -0.848292 0.014692 -0.829555 -0.872128 
0.779725 -0.557638 0.563401 0.61989 -0.900485 0.75668 -0.733535 -0.370312 0.35736 
0.400689 0.0560261 0.726905 0.929266 -0.263111 -0.13149 0.296295 0.892979 0.136006 
0.787043 0.899698 0.136074 0.109663 0.78289 0.881297 -0.503647 -0.882875 -0.125568 
0.471486 0.922671 -0.788802 -0.541314 -0.0256251 -0.741835 0.736884 0.479155 0.202301 
-0.971766 -0.684022 -0.460194 0.927561 0.637711 0.832968 -0.185359 0.676657 -0.937949 
0.11031 0.766286 0.535915 0.784473 0.671011 0.586751 0.71254 0.735821 0.0439891 
0.86927 0.810176 0.540055 0.737474 0.911861 0.996998 0.146367 0.442054 0.253283 
-0.834231 0.521491 0.341903 -0.0712546 -0.769552 -0.0221161 -0.39745 0.829338 0.734717 
0.746533 -0.607974 0.273536 0.783873 -0.477253 -0.877085 0.736548 -0.381367 -0.898151 
-0.960366 0.192065 0.149273 -0.455571 -0.582562 0.0336225 -0.50459 0.537044 -0.0373651 
0.439632 -0.455866 0.261218 0.986092 -0.817968 -0.469194 -0.0512813 -0.887029 0.0592503 
0.979188 0.330319 -0.386117 0.657964 0.492396 0.413025 0.706762 -0.971172 0.970044 
0.959388 -0.989299 -0.497112 -0.541031 0.351807 -0.325072 -0.307967 0.819929 -0.194379 
0.790511 0.170538 -0.451585 0.0384751 0.422041 -0.265624 0.171362 -0.498995 0.910053 
-0.382164 -0.10426 -0.448827 -0.826657 0.747549 0.989402 0.311631 -0.237246 -0.0493034 
0.846916 -0.178456 0.649872 0.0161596 -0.944634 0.506161 -0.513367 0.998383 -0.88894 
0.759884 -0.654069 -0.139797 -0.521522 -0.358949 -0.341736 0.8827 -0.0319986 0.961457 
0.323875 -0.164761 -0.347201 -0.645632 -0.297386 -0.543525 -0.449338 -0.0999577 0.688552 
0.421338 -0.15731 0.717976 -0.0665816 -0.805976 -0.0997715 -0.0996186 0.694423 0.955221 
-0.478366 -0.294751 -0.000216297 0.915729 0.594325 0.113042 0.98512 -0.750597 0.799717 
0.446341 0.533098 -0.265584 -0.601617 0.700205 0.814825 0.861003 0.480705 0.764322 
-0.435389 -0.118433 -0.703273 -0.075025 0.539518 -0.820386 -0.62784 0.660946 0.995193 
0.343948 -0.764223 0.165334 0.716828 0.629063 -0.83764 -0.518547 0.606229 0.250201 
0.806716 0.891122 0.410165 0.715284 -0.889304 0.0896267 0.791183 -0.626878 0.984328 
0.692111 -0.572265 0.402954 0.486766 -0.305828 -0.0662506 -0.717011 -0.0828008 0.480586 
-0.574607 0.0185772 -0.644873 0.23635 0.960273 0.446203 -0.935148 0.972179 -0.4256 
-0.837386 0.370499 -0.978148 -0.804872 -0.585599 -0.0111986 0.231439 -0.0289773 -0.0809199 
0.250037 0.858135 0.487501 -0.59534 -0.750744 0.659892 -0.987834 0.46672 0.25296 
-0.729343 -0.697095 -0.379816 -0.193635 0.684438 0.0717263 -0.016671 0.521218 -0.546392 
0.587601 -0.224059 -0.30413 -0.116838 0.71464 0.831861 -0.643489 -0.0698178 -0.951226 
0.622315 -0.044542 0.105983 -0.584382 0.637083 0.721397 -0.838525 0.862672 0.461137 
0.664975 -0.657656 -0.795339 -0.325176 -0.0699391 -0.654183 0.852593 0.151606 0.500387 
-0.555402 0.374659 -0.561069 -0.461551 -0.58095 0.686315 -0.446841 -0.581344 -0.769756 
-0.350706 0.856505 0.96281 0.0736196 -0.539783 -0.319818 -0.285993 -0.497625 0.415594 
0.201447 0.797686 0.293032 -0.883217 -0.234657 0.504461 0.621713 -0.486316 0.333686 
0.482538 0.491502 0.851067 -0.752228 -0.297153 -0.792365 -0.938287 0.959509 -0.699386 
-0.98074 0.253649 0.669162 0.652592 0.315987 0.218392 -0.73711 -0.638444 -0.394403 
0.616814 -0.737679 0.268512 -0.2323 0.71258 -0.52996 -0.486489 0.233665 0.154551 
-0.659958 -0.718194 0.280092 0.00378697 0.506116 -0.222604 0.528767 -0.951556 0.226265 
0.73731 0.402905 0.408543 0.706258 -0.0207573 0.0851737 -0.538736 0.733113 0.201198 
-0.381928 0.741006 0.548828 0.864852 0.189413 -0.762483 -0.206361 -0.13978 -0.879766 
0.309647 -0.245643 0.982247 -0.440765 0.749015 -0.300297 0.515242 0.725251 0.791134 
0.4302 -0.134006 0.735547 0.653196 0.37623 -0.809323 -0.997027 -0.360138 0.00400671 
0.673547 0.321971 -0.301799 -0.065033 -0.827138 0.0511998 0.399332 0.219885 0.811556 
-0.257814 0.984448 0.454541 -0.663117 0.962836 0.467618 0.715225 -0.662321 0.590065 
-0.408304 0.404882 -0.361631 0.977051 0.533763 0.101828 -0.994452 -0.83297 0.571913 
-0.174693 -0.317324 -0.436837 0.338178 -0.723973 0.00239346 -0.821772 -0.690328 -0.872193 
0.399475 0.522132 -0.357014 -0.427209 0.180199 -0.80678 0.0389932 0.00813015 0.704008 
-0.391851 -0.569052 -0.692594 0.207917 0.192846 0.452016 -0.945373 0.691637 0.487368 
0.929757 -0.794354 -0.197973 0.972892 -0.0285601 0.453331 0.52031 -0.444847 0.504594 
0.820796 -0.942041 -0.140013 -0.641668 0.413777 -0.378789 0.714689 0.580311 0.455259 
0.479469 0.893359 0.135759 0.710533 0.962607 0.677296 -0.869092 0.503736 -0.317009 
-0.599924 -0.889391 0.80662 0.0968837 0.830199 0.440576 -0.0556876 -0.133097 -0.657755 
0.655485 0.160942 0.945674 -0.310353 -0.581505 -0.549842 -0.207597 -0.0873232 0.714389 
0.176041 -0.00800835 -0.456417 -0.0379214 -0.279468 0.525058 -0.682539 -0.997927 0.0593485 