ITEM: TIMESTEP
0
ITEM: NUMBER OF ATOMS
7071
ITEM: BOX BOUNDS pp pp pp
-84.7009964 84.7009964
-61.6484986 61.6484986
-40.0732002 40.0732002
ITEM: ATOMS id x y z peatom type
1 -65.8951722 37.7911453 -18.5904389 -4.1908598 1
2 -63.7244568 38.5198288 -20.299881 -4.2498899 1
3 -65.6803742 40.0024796 -20.0874138 -4.3867798 1
4 -62.0250168 40.0898972 -19.3784371 -4.3597999 1
5 -63.9970246 42.0299683 -19.304142 -4.2518301 1
6 -64.3160095 37.1292877 -16.9732456 -4.1781602 1
7 -67.6159592 39.7360306 -18.5159836 -4.38901 1
8 -64.1555862 39.8355332 -18.1866627 -4.2845802 1
9 -66.1607971 39.0101852 -16.5989609 -4.3742199 1
10 -64.6529465 40.775055 -15.7760163 -4.3394599 1
11 -62.1520653 38.0494537 -18.3080845 -4.1964002 1
12 -62.7534447 39.0559235 -16.3307114 -4.3281698 1
13 -65.9422684 41.3139877 -17.846199 -4.3451901 1
14 -62.6672173 41.3435822 -17.2572823 -4.2971301 1
15 63.8406602 -42.6653214 17.7585182 -4.4138398 1
16 65.9990158 -41.3075752 17.6490402 -4.3234401 1
17 62.5853958 -40.3288422 17.6064797 -4.1370301 1
18 64.609581 -39.3030129 17.5206452 -4.3347502 1
19 62.1105576 -41.9532814 19.5170899 -4.3063698 1
20 63.5525131 -42.4394455 21.500557 -4.3119202 1
21 65.4896164 -42.8265953 19.7996903 -4.3031502 1
22 67.5627671 -41.570446 19.6353035 -4.3715501 1
23 62.8235703 -38.6835709 19.0681114 -4.2767902 1
24 62.2211838 -40.0334244 21.1346054 -4.4161501 1
25 65.623787 -40.9782486 21.4372406 -4.3211599 1
26 64.2108078 -40.729805 19.4779816 -4.3824701 1
27 64.4205246 -38.888733 21.0626335 -4.2698698 1
28 66.5905686 -39.4049797 19.200676 -4.2328901 1
29 -65.4078064 35.5922699 -23.6661091 -4.3544598 1
30 -63.7661286 37.3139877 -22.6290951 -4.2937198 1
31 -61.7416039 35.8051987 -23.0133171 -4.2734299 1
32 -69.051796 38.9717102 -22.7073193 -4.3030501 1
33 -67.1992264 37.4275437 -23.2742748 -4.3105602 1
34 -67.2156601 39.6484986 -24.26857 -4.356 1
35 -65.0649338 38.0320663 -24.4351959 -4.3136201 1
36 -63.4720459 39.6672364 -23.6361351 -4.3055701 1
37 -61.6948471 38.1019745 -24.201889 -4.3076701 1
38 -60.2000504 39.6582337 -23.4187775 -4.3355799 1
39 -67.1553497 42.9999542 -22.7291985 -4.2351899 1
40 -65.2251892 41.2289124 -23.2297917 -4.3827901 1
41 -63.6655045 43.2811966 -22.4128609 -4.1220698 1
42 -61.7763329 41.6142197 -22.8717786 -4.4418803 1
43 -65.4017029 44.6545944 -21.97398 -4.30336 1
44 -67.7292862 33.9990234 -18.7924881 -4.2764001 1
45 -67.3808289 35.0358276 -22.1513424 -4.3453798 1
46 -69.4287415 36.777153 -21.8528786 -4.3025999 1
47 -67.5798798 36.3838272 -19.7640209 -4.32513 1
48 -65.6473389 34.6036759 -20.3920498 -4.3060899 1
49 -65.8340149 36.8571702 -21.4521466 -4.1482701 1
50 -63.7930641 36.3512802 -19.0791721 -4.15909 1
51 -63.7827301 34.995636 -21.847908 -4.0891099 1
52 -62.4012566 34.6822129 -20.0444546 -4.2625899 1
53 -62.0251846 37.0327454 -20.7172833 -4.2762399 1
54 -60.6166077 36.0405808 -18.8602104 -4.3971 1
55 -60.0938339 35.2859955 -21.0552616 -4.2196498 1
56 -58.47435 36.87986 -20.3587895 -4.2896299 1
57 -70.8802796 39.9018708 -19.0560093 -3.99229 1
58 -69.2756958 38.10112 -19.2566147 -4.2975502 1
59 -69.0809937 40.3216934 -20.5838394 -4.30967 1
60 -67.6793137 38.4324112 -20.911478 -4.2163501 1
61 -67.2324295 40.6598969 -21.9801502 -4.3729901 1
62 -65.4223709 38.9809648 -22.2221928 -4.2514401 1
63 -60.0519905 37.4965897 -22.1256161 -4.25665 1
64 -62.0692291 39.1402664 -21.8813306 -4.23416 1
65 -60.2368088 38.4971466 -20.1803017 -4.1894202 1
66 -58.2356606 39.0935288 -21.4039784 -4.3315702 1
67 -58.6679764 40.2567215 -19.151144 -4.2956801 1
68 -68.9255524 42.5073776 -21.5051232 -4.2216001 1
69 -67.3732071 41.8310929 -19.8441696 -4.3447399 1
70 -69.4058228 43.6085434 -19.1308651 -4.1608601 1
71 -67.4736634 44.2186203 -20.4892674 -4.2888298 1
72 -65.5028382 42.433281 -21.0616722 -4.3049502 1
73 -65.7230606 43.5841294 -18.9504548 -4.3598499 1
74 -63.7705345 44.2226944 -20.2356033 -4.3352299 1
75 -63.5709763 40.7670365 -21.3287201 -4.3599 1
76 -62.0290794 42.3864212 -20.3909264 -4.3362599 1
77 -60.449913 41.7048416 -18.6255436 -4.2413802 1
78 -60.3789368 40.6873932 -21.1624966 -4.3951402 1
79 -59.8775102 43.1165924 -21.8286743 -4.2195101 1
80 -60.4819336 44.1404495 -19.8122692 -4.3071499 1
81 -58.7155762 42.2806397 -20.0906181 -4.1438699 1
82 -65.5258789 45.7888108 -19.8763066 -4.3091898 1
83 -61.9552232 44.5112 -21.7248841 -4.2414498 1
84 -62.069397 45.950203 -19.4858341 -4.2378802 1
85 -65.9883424 33.3727951 -16.9362164 -4.3854098 1
86 -62.5628662 33.2599793 -16.2738876 -4.3848901 1
87 -69.5794449 35.6888047 -18.3419056 -4.40902 1
88 -67.804451 35.0239944 -16.7514782 -4.2598701 1
89 -69.8325501 36.6545944 -16.0349712 -4.3786898 1
90 -67.8938752 37.3407364 -17.3444023 -4.3213401 1
91 -64.075119 33.9204788 -18.3475132 -4.2430201 1
92 -65.8885652 35.5009079 -18.1618958 -4.2865 1
93 -64.2236862 35.0212784 -15.9583512 -4.2523999 1
94 -66.1396179 36.6468277 -15.7010803 -4.3685598 1
95 -60.4707527 33.8777008 -17.7234955 -4.3246598 1
96 -62.4659691 35.4718018 -17.3812695 -4.27948 1
97 -60.9476166 35.0656662 -15.6225376 -4.3671498 1
98 -62.8610154 36.9202958 -15.0417957 -4.3334799 1
99 -60.848179 37.3910523 -16.5758801 -4.3070998 1
100 -59.1121483 35.7537842 -17.0509853 -4.2592502 1
101 -69.695488 38.9781266 -17.0866509 -4.3211899 1
102 -68.1529999 38.2843323 -15.1770039 -4.3322401 1
103 -68.1878586 40.7208023 -16.3908196 -4.2075 1
104 -64.5275879 38.5488129 -14.7913399 -4.3338499 1
105 -60.532753 39.6404801 -17.5184002 -4.2878299 1
106 -60.9166184 40.6381912 -15.43219 -4.3420501 1
107 -58.870411 37.846138 -18.1870613 -4.3831701 1
108 -58.9596864 39.1041336 -15.7630348 -4.3082399 1
109 -69.4227829 41.3307572 -18.3555298 -4.1873598 1
110 -69.6323548 42.2744751 -15.8342037 -4.14011 1
111 -67.6632233 42.936203 -17.4140492 -4.4452901 1
112 -68.0012131 44.2268829 -15.1164932 -4.2936602 1
113 -66.4426804 42.3334046 -15.2992268 -4.1775098 1
114 -64.2550202 42.9614792 -16.9340516 -4.3653898 1
115 -62.3129997 43.5582428 -18.2572689 -4.3449998 1
116 -60.996914 42.824379 -16.3846493 -4.3553701 1
117 -58.9256364 41.3901901 -16.816639 -4.2732301 1
118 -58.903614 43.3713226 -17.9629726 -4.3213201 1
119 -67.6322174 45.2910538 -18.5084496 -4.33674 1
120 -66.118103 44.6881333 -16.5489483 -4.4010902 1
121 -64.252655 45.3348236 -17.945179 -4.3659001 1
122 -60.7267151 45.2911835 -17.7487412 -4.1827598 1
123 -62.6040344 44.6908493 -16.1797962 -4.36762 1
124 -68.0855713 36.1644898 -14.229353 -4.1279602 1
125 -66.4957047 34.3208313 -14.5943394 -4.3723302 1
126 -64.733078 35.9568558 -13.8978672 -4.3432002 1
127 -62.7509003 34.4020767 -14.2029858 -4.3144398 1
128 -61.1676712 36.1187439 -13.2969303 -4.38269 1
129 -59.0364227 36.9337388 -14.6109295 -4.35851 1
130 -69.8971406 40.0198669 -14.8153019 -4.3568401 1
131 -68.6068726 39.6296311 -12.9714546 -4.3133998 1
132 -66.5449982 37.867218 -13.3684998 -4.3959398 1
133 -64.8408128 39.4256897 -12.4594784 -4.34058 1
134 -66.5158615 40.2379685 -14.2347221 -4.2533798 1
135 -63.1205368 37.7950897 -12.6808434 -4.22368 1
136 -61.1571693 39.4485016 -12.0941715 -4.2380901 1
137 -61.0822945 38.3875351 -14.3170338 -4.3749399 1
138 -62.8081589 39.980774 -13.5797653 -4.2388401 1
139 -59.4826279 40.0656052 -13.4958534 -4.3113299 1
140 -68.1629028 41.7272797 -14.0973511 -4.0104198 1
141 -66.7132111 41.1062317 -11.8788986 -4.2509198 1
142 -64.6500702 41.928627 -13.5291138 -4.1908798 1
143 -66.6925507 43.5413513 -13.1423264 -4.3662601 1
144 -64.70224 43.9291154 -14.5529022 -4.3263102 1
145 -62.7507324 42.054512 -14.7865296 -4.2751098 1
146 -63.1112213 41.3142395 -11.5303421 -4.4116702 1
147 -61.0333328 41.8584672 -12.8903466 -4.2927299 1
148 -63.0104294 43.5046082 -12.7583447 -4.2508102 1
149 -61.1027908 43.9730148 -14.1073685 -4.3696699 1
150 -59.190918 42.342041 -14.7034168 -4.4117699 1
151 60.3770676 -42.5112 14.3483696 -4.3056898 1
152 66.0154495 -41.8929902 14.3113442 -4.37008 1
153 63.7588425 -43.1734314 14.320961 -4.2086501 1
154 62.785286 -40.9903336 14.0415688 -4.2172299 1
155 61.1341324 -39.133728 13.6769829 -4.2729702 1
156 64.8016892 -39.950203 13.7622605 -4.30477 1
157 66.8973618 -38.5374604 13.9397812 -4.3940902 1
158 68.2202072 -40.6600189 14.0647316 -4.3736601 1
159 63.4081802 -37.9409524 13.7905503 -4.3226299 1
160 61.2872696 -46.1016083 16.4635926 -4.37041 1
161 65.0491867 -47.0606155 16.9403878 -4.2137699 1
162 65.2932816 -45.524704 14.9868164 -4.2311001 1
163 67.0040817 -45.3700867 16.7267914 -4.3530102 1
164 58.2300644 -43.6027527 17.8459588 -4.0836401 1
165 58.6640854 -42.053524 15.9174768 -4.27879 1
166 59.7785721 -44.0153046 16.217701 -4.2550402 1
167 61.7275467 -44.5097199 14.4651413 -4.3656702 1
168 63.6068955 -44.6227875 16.2984123 -4.30651 1
169 60.4029923 -42.005806 17.4285584 -4.31671 1
170 62.167656 -42.5058975 15.9370346 -4.3059402 1
171 61.7492295 -43.9921188 17.932438 -4.3715 1
172 65.6930771 -43.3147278 16.3478623 -4.2816501 1
173 67.1416397 -44.039711 14.6223107 -4.2343502 1
174 69.1859818 -44.4245224 17.0028992 -4.1536198 1
175 67.7081223 -42.0575905 16.2746086 -4.2690802 1
176 59.0481186 -40.0485916 17.4909096 -4.16396 1
177 59.3069534 -38.7370835 15.6244583 -4.2489801 1
178 60.8519058 -40.5123101 15.4549523 -4.2580099 1
179 63.0563278 -39.201046 15.6470642 -4.2577901 1
180 61.0623093 -38.6086045 17.165596 -4.3319101 1
181 64.3629379 -41.1991959 15.8356438 -4.3741799 1
182 66.4379349 -39.9642564 15.7259255 -4.3480001 1
183 68.1409378 -40.1065407 17.5052529 -4.2795901 1
184 69.9969102 -40.6203156 16.2142563 -4.3329301 1
185 68.571724 -38.4049187 15.8778038 -4.2746601 1
186 70.2044296 -38.6746903 17.7080269 -4.4040299 1
187 59.545311 -36.5860405 16.885563 -4.3188901 1
188 61.2743912 -37.3180542 15.1551247 -4.3723602 1
189 63.0017929 -37.3456726 17.1622315 -4.3352199 1
190 61.4947891 -35.3778534 16.7692719 -4.3474002 1
191 63.4220658 -35.7817765 15.2428017 -4.3792801 1
192 66.5958176 -37.8429298 17.3528977 -4.2842398 1
193 65.1067734 -37.8868256 15.5327721 -4.3063698 1
194 64.9846268 -35.925171 17.4539643 -4.2883301 1
195 67.0328751 -36.2839661 15.7463646 -4.28549 1
196 68.7971878 -36.4906082 17.5513382 -4.3751502 1
197 59.5929032 -45.5409775 18.1933136 -4.3615999 1
198 59.3000107 -45.1625824 21.6380844 -4.3832402 1
199 61.1607285 -45.6006546 20.1326141 -4.3376999 1
200 62.958931 -46.0746079 18.2777863 -4.3881898 1
201 66.4152298 -47.0717087 18.6379662 -4.0941901 1
202 64.8386154 -46.2848282 20.134697 -4.3761101 1
203 66.7570877 -44.743248 20.1283684 -4.1924901 1
204 65.292778 -44.8106919 18.2585487 -4.3259802 1
205 68.5585099 -45.6078034 18.8764 -4.0864501 1
206 59.745369 -43.4799462 19.4396668 -4.2123599 1
207 58.1485977 -42.8055115 21.4409218 -4.3853002 1
208 58.6462937 -41.4568863 19.2727242 -4.2172399 1
209 60.3369217 -41.7557602 21.1339645 -4.2392302 1
210 63.3519516 -44.1990128 19.9631042 -4.3727899 1
211 61.4671707 -43.7634049 21.578537 -4.2941098 1
212 67.1943131 -42.9895936 21.735302 -4.3603401 1
213 65.1431961 -44.247963 21.7217598 -4.2382398 1
214 67.1204605 -43.3947487 18.2573509 -4.1984701 1
215 69.4409256 -42.3110886 17.9200936 -4.3530302 1
216 69.0531693 -43.6584778 20.0741081 -4.4184098 1
217 69.4507523 -41.6759873 21.5330124 -4.3772602 1
218 71.1883164 -42.2875404 19.8702126 -4.3250198 1
219 58.9801866 -39.7811585 21.1014252 -4.3262501 1
220 59.1809311 -37.9790498 18.7916069 -4.2858601 1
221 60.6426926 -40.2416763 19.1650086 -4.2670202 1
222 60.739769 -38.0579605 20.6760102 -4.1265998 1
223 69.8205643 -40.2193565 19.536007 -4.40659 1
224 67.9290086 -39.753418 21.3914757 -4.3966599 1
225 70.1541061 -38.1599274 21.0717735 -4.2964201 1
226 59.6046067 -36.2669487 20.545372 -4.1704602 1
227 61.3099747 -36.6873932 18.712822 -4.2178302 1
228 62.7661515 -36.892189 20.6806565 -4.37393 1
229 63.0724258 -35.409668 18.7217179 -4.17767 1
230 61.6274338 -34.7050209 20.5060158 -4.2671299 1
231 64.953972 -37.3308792 19.216301 -4.18717 1
232 66.4848557 -37.5259323 20.9801636 -4.2567902 1
233 64.896721 -35.5210037 20.5824776 -4.36305 1
234 66.9656296 -36.1527786 18.9976616 -4.2166901 1
235 68.4309464 -38.1605454 19.2922821 -4.2626801 1
236 68.7313004 -36.3290901 20.8036003 -4.2550602 1
237 63.0473557 -45.8356591 21.9267732 -4.30441 1
238 61.1149826 -45.2527084 23.5611992 -4.3053498 1
239 64.7788162 -46.0134506 23.7400818 -4.2951102 1
240 66.4228592 -46.6372147 22.013649 -4.3055401 1
241 68.6393204 -44.8854066 22.1805191 -4.1462898 1
242 59.6044235 -43.2978363 23.2828484 -4.2371998 1
243 61.2538986 -43.2011719 25.3793221 -4.2456102 1
244 63.0038223 -43.8822632 23.7743874 -4.18048 1
245 63.5183029 -42.005806 25.0944786 -4.3811698 1
246 61.7931137 -41.7435532 22.9484788 -4.2928801 1
247 66.8524704 -44.5518914 23.6366158 -4.3393102 1
248 65.3129349 -42.5665627 23.2807655 -4.3144302 1
249 66.9239578 -42.5595322 25.0952797 -4.3524699 1
250 64.8641892 -44.1485863 25.2069283 -4.3158999 1
251 68.74926 -43.0638199 23.5042153 -4.2513499 1
252 58.2964707 -41.0011826 23.1557388 -4.3398299 1
253 60.1907272 -41.1861267 24.7586632 -4.2244702 1
254 60.4253464 -39.6672364 22.849579 -4.3042998 1
255 62.3263779 -39.7121125 24.6390114 -4.27987 1
256 62.4009171 -38.2028351 22.5862999 -4.12357 1
257 63.8672562 -40.3114624 22.8680916 -4.31073 1
258 66.1614761 -38.8682672 22.8430062 -4.3302202 1
259 65.5085984 -40.4525109 24.7732506 -4.3620401 1
260 64.2086105 -38.5013352 24.51614 -4.2974801 1
261 67.552269 -40.9389192 23.5553475 -4.2102399 1
262 69.5324021 -39.672287 23.2249832 -4.3665099 1
263 67.867012 -38.9156152 24.7450447 -4.27632 1
264 59.175499 -37.6593399 22.5951958 -4.3320799 1
265 63.2911301 -34.7586594 22.3096352 -4.2178798 1
266 61.1480179 -36.46558 22.459343 -4.11971 1
267 60.9482956 -37.8153153 24.4507408 -4.3168702 1
268 62.7905503 -36.3797646 24.2545433 -4.37145 1
269 66.2565079 -36.8035355 24.3935204 -4.3776102 1
270 64.5716324 -37.1054916 22.4556618 -4.3467999 1
271 66.6803513 -35.682396 22.4356194 -4.2779598 1
272 68.1283951 -37.557251 22.695858 -4.2941599 1
273 -63.1198578 33.1116562 -26.314148 -4.1052899 1
274 -68.8054352 34.5581742 -26.5614777 -4.2976999 1
275 -68.6637573 37.0450821 -27.3092461 -4.3034001 1
276 -70.6364289 36.2426605 -26.0036602 -4.26085 1
277 -66.5373764 35.4502259 -27.7202358 -4.1069698 1
278 -64.9848022 37.27034 -26.8412704 -4.25137 1
279 -62.9496118 35.1352081 -27.3187027 -4.1901798 1
280 -61.4612427 37.1014252 -26.6997319 -4.31881 1
281 -70.3427735 38.7319031 -27.0591888 -4.3659101 1
282 -68.5301514 40.3030777 -26.1447983 -4.2358799 1
283 -66.9561386 38.6711197 -26.5066586 -4.3315501 1
284 -64.9477082 39.3766251 -27.886139 -4.2705102 1
285 -63.0978394 37.4832764 -28.5244255 -4.3729401 1
286 -61.3885727 39.4264374 -27.5121765 -4.3598099 1
287 -63.2482681 38.7904663 -25.9676744 -4.3607202 1
288 -68.5374222 42.5299454 -27.2795105 -4.3620401 1
289 -66.5477066 40.9957582 -27.362381 -4.2644501 1
290 -64.956009 42.5833359 -26.5694943 -4.3526001 1
291 -63.2579231 40.971962 -27.2298203 -4.3530402 1
292 -61.5691529 42.6125565 -26.1239605 -4.2175698 1
293 -59.6188278 41.0276947 -26.2796841 -4.2554598 1
294 -66.7570877 44.2478409 -26.4033508 -4.2516799 1
295 -69.0621948 33.4872132 -23.022295 -4.3494802 1
296 -67.2680054 31.7348023 -23.3765412 -4.3610201 1
297 -65.0628967 32.116272 -24.6504669 -4.26506 1
298 -65.5038529 33.5001679 -22.4821072 -4.2951198 1
299 -63.2585983 31.7016297 -23.0547543 -4.2304402 1
300 -61.1268463 32.282608 -24.1790466 -4.3663602 1
301 -59.7845078 31.741951 -22.2584992 -4.2727199 1
302 -71.0941162 35.1305161 -22.5168915 -4.3031998 1
303 -70.7474213 33.9085236 -24.894352 -4.3773899 1
304 -68.9686662 35.533577 -24.2081394 -4.34199 1
305 -67.0123749 33.789177 -24.4818402 -4.3224702 1
306 -65.0408783 34.5818482 -25.8184433 -4.3082199 1
307 -66.9305574 36.2431564 -25.7571297 -4.1303501 1
308 -61.504612 34.4837036 -25.1981888 -4.3139601 1
309 -63.4900055 33.7179032 -24.1848984 -4.0839701 1
310 -63.2951889 36.3019638 -25.186327 -4.3695502 1
311 -58.0389862 36.9199296 -25.9308052 -4.3349199 1
312 -59.5902024 34.143898 -23.2570419 -4.1407199 1
313 -58.1279221 34.661499 -24.9421196 -4.2554202 1
314 -58.1455383 35.9895326 -22.7670288 -4.1388402 1
315 -60.0220032 36.3433991 -24.5304089 -4.37959 1
316 -56.5643387 36.3029556 -24.2410813 -4.10324 1
317 -72.2351303 39.0311432 -23.1824265 -4.31461 1
318 -70.6783753 37.318306 -23.7414475 -4.25807 1
319 -70.5010071 39.7317124 -24.7709275 -4.3885102 1
320 -68.7905731 37.8016281 -24.9930134 -4.29215 1
321 -65.1779251 40.2957993 -25.6562252 -4.3635602 1
322 -61.5844002 40.398262 -25.2009926 -4.25774 1
323 -59.7302933 38.6605149 -25.7562485 -4.3891301 1
324 -58.1174164 38.0218353 -23.8014775 -4.2809501 1
325 -56.3869782 39.6539154 -22.9767704 -4.35253 1
326 -58.0040894 40.3006058 -24.7811871 -4.35426 1
327 -72.356369 41.2957382 -24.1810494 -4.3299899 1
328 -70.9058304 43.029541 -23.5196018 -4.24545 1
329 -70.7150193 40.6055222 -22.5309162 -4.2779298 1
330 -70.6805725 41.9141998 -25.8278981 -4.3206201 1
331 -68.744957 41.5339508 -23.7942639 -4.2148399 1
332 -68.835907 43.6205063 -24.7452011 -4.2996502 1
333 -66.925644 41.9318314 -25.0842209 -4.2954602 1
334 -65.3768005 43.6913986 -24.4279022 -4.3679099 1
335 -63.3529587 41.9318314 -24.7369461 -4.3407402 1
336 -61.4968186 43.8916398 -23.9722692 -4.2603302 1
337 -57.771164 42.7009583 -25.7914315 -4.3302798 1
338 -59.7257233 42.3091202 -24.1535606 -4.3290601 1
339 -57.9329414 43.7159348 -23.5271359 -4.24405 1
340 -58.3117218 41.214119 -22.4989376 -4.3826599 1
341 -56.5138626 41.9759674 -23.9794828 -4.2004199 1
342 -70.6261597 45.2506104 -24.3806954 -4.3547602 1
343 -70.6945191 46.340683 -21.9440042 -4.32376 1
344 -69.0719681 47.0699844 -23.4654236 -4.29181 1
345 -68.7776795 44.7178498 -22.5009403 -4.3501601 1
346 -67.0001831 45.4826584 -23.8886758 -4.0996499 1
347 -64.9497376 45.7129822 -25.550993 -4.30725 1
348 -65.1265945 46.7247544 -23.0853691 -4.2751799 1
349 -63.4688263 45.2639313 -23.6669922 -4.2339301 1
350 -63.121891 44.1697922 -25.7234688 -4.2475 1
351 -61.4197426 46.0000153 -25.130146 -4.3828602 1
352 -61.9476014 46.9744264 -22.8919754 -4.44381 1
353 -59.8876724 45.4355622 -23.1207142 -4.4202099 1
354 -59.3996201 44.4876557 -25.3788376 -4.3123498 1
355 -58.2729302 47.2114029 -22.2321301 -4.3168602 1
356 -67.3333969 48.6110764 -22.5950337 -4.3371 1
357 -63.6978607 48.7863999 -22.3675785 -4.3355999 1
358 -63.6134987 47.4933853 -24.7609101 -4.3269 1
359 -67.5451508 30.7683945 -19.99893 -4.2511401 1
360 -71.0056229 32.8395386 -21.4110317 -4.39427 1
361 -69.1095276 31.2651596 -21.8278713 -4.3323798 1
362 -69.3549347 32.2549896 -19.6228028 -4.3603101 1
363 -67.5610733 32.8267212 -21.1730766 -4.2918301 1
364 -63.9551812 30.7279511 -19.6857205 -4.3726101 1
365 -65.6780014 31.0681305 -21.5590611 -4.2122302 1
366 -65.733902 32.5380783 -19.1427269 -4.3024202 1
367 -63.8672638 32.8379288 -20.8100128 -4.3043599 1
368 -62.0490723 31.4492417 -20.9320756 -4.2168498 1
369 -60.5840836 30.939537 -19.2752094 -4.3382201 1
370 -60.4981919 33.2857514 -20.2244625 -4.2494102 1
371 -61.9845276 33.6455307 -22.2894344 -4.2608199 1
372 -58.3000336 30.9974824 -20.54529 -4.3192902 1
373 -56.6436234 32.7293167 -19.764103 -4.29178 1
374 -72.563324 36.7976227 -21.9181176 -4.2813001 1
375 -71.2089768 33.7446594 -19.1024933 -4.21664 1
376 -72.776619 34.5801239 -20.9275074 -4.4257598 1
377 -73.0144653 35.8296128 -18.5705605 -4.3687701 1
378 -71.2260819 36.2821121 -20.0711441 -4.2951899 1
379 -69.3371887 34.6761704 -20.6133328 -4.4006 1
380 -58.4047241 33.4640351 -21.5630684 -4.2034502 1
381 -58.49366 34.557312 -19.2226334 -4.3305402 1
382 -56.578743 35.1249695 -20.652525 -4.3228502 1
383 -56.9548112 36.233902 -18.3544884 -4.3400898 1
384 -55.2509689 34.4834595 -18.9096604 -4.2537999 1
385 -54.6101189 36.994278 -20.0059052 -4.2663999 1
386 -74.7667923 39.6335755 -19.5428982 -4.2411299 1
387 -73.0044708 37.91568 -19.8981858 -4.2182498 1
388 -70.8937836 38.6372147 -21.1326828 -4.3848 1
389 -72.6902085 40.1515503 -20.9433766 -4.3235998 1
390 -56.4340744 37.3817978 -21.9228458 -4.36971 1
391 -56.788971 38.3192215 -19.6502953 -4.2861099 1
392 -54.9629822 39.146431 -21.0252857 -4.3098102 1
393 -55.1027412 40.4119492 -18.8093987 -4.0616798 1
394 -72.6401367 42.5294495 -21.8939934 -4.20783 1
395 -71.1374893 41.7706833 -20.2619724 -4.2350602 1
396 -72.8435212 43.5478821 -19.9075642 -4.2279301 1
397 -70.9221954 43.9995194 -21.0946922 -4.3342099 1
398 -56.6542931 40.664093 -20.6969261 -4.2657399 1
399 -56.6280365 43.0296631 -21.3429852 -4.3415599 1
400 -54.8864136 41.5864716 -21.9704534 -4.33111 1
401 -55.0627594 42.3372269 -19.6374722 -3.84756 1
402 -71.53965 45.1585159 -18.8267098 -4.2976799 1
403 -71.2581482 47.4933853 -19.6025276 -4.27423 1
404 -69.3203125 45.6438141 -20.1750126 -4.24821 1
405 -67.3913269 47.5877075 -19.3449364 -4.3867402 1
406 -67.2952805 46.4631119 -21.6348 -4.39958 1
407 -63.7320786 46.6020737 -21.1142483 -4.2163201 1
408 -64.0249786 47.5796967 -18.8440208 -4.3185301 1
409 -60.3082962 46.4493027 -20.9066696 -4.3520398 1
410 -60.7543335 47.5857392 -18.5009957 -4.3422899 1
411 -56.8509712 44.3622589 -19.1180439 -4.2856598 1
412 -58.4089584 44.711319 -20.9875374 -4.3541999 1
413 -58.7865563 45.9558716 -18.6955109 -4.1417999 1
414 -56.6958008 46.6693955 -20.3388329 -4.3920698 1
415 -69.1463852 47.9595718 -21.1624966 -4.3361302 1
416 -65.6010895 48.0033417 -20.9313546 -4.3799501 1
417 -64.095108 49.8495866 -20.1164246 -4.4109001 1
418 -65.7762528 49.3121414 -18.65135 -4.3081999 1
419 -62.2623444 48.2611542 -20.6054802 -4.2943702 1
420 -58.7040558 47.8740082 -19.941147 -4.2279201 1
421 -65.7977677 30.0235596 -18.1870613 -4.33182 1
422 -64.3583603 29.3197785 -16.1414051 -4.3992601 1
423 -62.6114846 30.2160263 -17.7235756 -4.28548 1
424 -71.3482208 31.5830155 -17.900938 -4.3522802 1
425 -71.5304108 32.6675339 -15.7696057 -4.2836099 1
426 -67.5146561 31.582161 -17.7917805 -4.3331299 1
427 -69.578888 30.9474182 -16.2673149 -4.33428 1
428 -68.0866089 32.6194535 -15.4076634 -4.3080101 1
429 -69.3519211 33.3327255 -17.3286133 -4.3088498 1
430 -66.2044983 30.9588928 -15.764637 -4.3548198 1
431 -64.3038101 31.6404724 -17.4635811 -4.1814399 1
432 -62.3580628 32.44487 -18.5397053 -4.29281 1
433 -62.7842789 30.9662858 -15.4263382 -4.30196 1
434 -60.7378998 31.6426926 -16.8091851 -4.38234 1
435 -58.7093125 32.3748322 -18.5108528 -4.2585902 1
436 -59.1265488 33.2777405 -15.8879814 -4.3496199 1
437 -71.3721619 34.9491502 -16.8404428 -4.3322601 1
438 -73.1680908 36.5771637 -16.2189865 -4.33953 1
439 -69.868309 34.4539871 -15.0973358 -4.3987098 1
440 -57.540947 34.9990922 -15.195116 -4.3064699 1
441 -57.0862694 33.684494 -17.5127907 -4.2505698 1
442 -55.1994705 35.859581 -16.3968315 -4.0699701 1
443 -71.4657517 37.4850006 -17.9599266 -4.3592701 1
444 -73.4663086 38.823021 -17.516716 -4.2845202 1
445 -71.7957306 38.4983826 -15.7232819 -4.35289 1
446 -73.4964447 40.2663345 -15.3748837 -4.1314101 1
447 -71.400383 40.5293274 -16.750679 -4.3000598 1
448 -57.0859299 37.4129944 -16.0518818 -4.3700299 1
449 -57.2998848 39.6298752 -17.2695446 -4.3320999 1
450 -55.3319397 37.9519272 -17.7761517 -4.3613601 1
451 -55.3531189 39.1167069 -15.3162975 -4.16188 1
452 -73.0818024 41.2403793 -18.637085 -4.3839698 1
453 -73.2352066 42.1728745 -16.5140057 -4.1317401 1
454 -71.2190018 42.9553224 -17.952713 -4.2996502 1
455 -71.6199265 44.005928 -15.514019 -4.3389502 1
456 -56.7886276 42.0551224 -18.4153175 -4.16781 1
457 -57.0352783 42.7385636 -15.95747 -4.3247399 1
458 -57.2956467 40.5965271 -14.9344808 -4.3436999 1
459 -55.3548126 41.0168381 -16.4678402 -4.2002802 1
460 -55.2299652 43.5812912 -17.3556233 -4.3718 1
461 -73.4080811 44.6717377 -17.4330445 -4.2572298 1
462 -71.7111359 46.2318115 -16.752842 -4.3345199 1
463 -69.60672 44.7010803 -17.1540546 -4.2581902 1
464 -68.0717011 46.4271088 -16.3249416 -4.3877902 1
465 -69.710701 46.7516327 -18.113327 -4.2344399 1
466 -64.4166336 46.1971664 -15.4765911 -4.3807998 1
467 -65.967682 46.9836808 -17.5357132 -4.3579798 1
468 -62.7348099 47.0141373 -17.0867329 -4.2210598 1
469 -60.9059448 46.2641144 -15.2145119 -4.40097 1
470 -58.9617196 47.0191879 -16.7547646 -4.2932501 1
471 -59.2156525 44.5770417 -15.7541371 -4.3606 1
472 -57.2153549 45.2194214 -16.8832398 -4.3053298 1
473 -55.4198609 44.7966309 -15.1550446 -4.37289 1
474 -67.8351441 48.6800003 -17.1360226 -4.14393 1
475 -69.9971772 47.9167938 -15.6638127 -4.2013798 1
476 -66.3857575 48.0847168 -15.4906979 -4.2667098 1
477 -64.4095154 48.5983734 -16.7473908 -4.2189202 1
478 -62.4615631 49.4499817 -18.2373943 -4.3831401 1
479 -61.1442947 48.5473252 -16.2754898 -4.32973 1
480 -62.7824097 47.7357941 -14.7809201 -4.1924801 1
481 -68.0195389 30.3191071 -14.4107247 -4.26791 1
482 -64.4432297 30.6200714 -13.9312878 -4.0977702 1
483 -71.7765885 33.8725204 -13.4993 -4.3983598 1
484 -69.8761368 32.2676849 -14.0164833 -4.3071299 1
485 -68.3339539 33.7805405 -13.0691528 -4.30936 1
486 -64.6278763 32.7723389 -14.7769909 -4.2032099 1
487 -66.4514923 31.8822556 -13.4483261 -4.3621898 1
488 -64.9927674 31.4693375 -11.5111866 -4.4062801 1
489 -66.9104004 33.13163 -11.3168316 -4.3557601 1
490 -60.96727 32.6701279 -14.5064202 -4.3583999 1
491 -63.0321121 32.0668411 -13.076046 -4.2752199 1
492 -61.3860321 33.8358994 -12.418766 -4.2684798 1
493 -59.2574921 30.934227 -14.9650974 -4.3680601 1
494 -59.5227814 32.0577087 -12.6695442 -4.37427 1
495 -57.4537049 32.638443 -14.1353417 -4.3189402 1
496 -71.6166229 36.258934 -14.4750004 -4.31317 1
497 -71.977707 37.2042542 -12.3507214 -4.3215699 1
498 -70.063446 35.4676132 -12.6998387 -4.4453101 1
499 -68.6054688 37.3667526 -12.1435432 -4.2677498 1
500 -64.8967134 33.8220902 -12.8408146 -4.2885099 1
501 -66.9373322 35.6425705 -12.5164643 -4.0961599 1
502 -64.9592286 37.0359497 -11.5216866 -4.2559099 1
503 -63.2462311 35.4993058 -11.7513047 -4.1350999 1
504 -59.4756851 34.4830857 -13.6385918 -4.3372998 1
505 -59.3120422 35.5920182 -11.5184002 -4.3141999 1
506 -57.4249039 35.8416978 -13.0466309 -4.0897398 1
507 -55.5179444 36.5856705 -14.1673985 -4.1572499 1
508 -73.6060105 37.7398529 -14.155056 -4.2593598 1
509 -72.04216 39.3930206 -13.3702622 -4.4227801 1
510 -70.0209045 37.8256684 -13.7864628 -4.2431798 1
511 -70.5769501 38.8718414 -11.5072594 -4.3397799 1
512 -59.3455849 37.9085236 -12.3995304 -4.34903 1
513 -57.2260285 38.5097199 -13.9358578 -4.2282701 1
514 -57.7948761 39.6576157 -11.7859288 -4.3133102 1
515 -55.9687272 37.8874436 -12.0284519 -4.3263102 1
516 -55.7222443 40.0968018 -13.085743 -4.3281798 1
517 -71.9218522 41.7212372 -14.3003616 -4.3013702 1
518 -71.9946594 42.7839356 -12.0744553 -4.1477299 1
519 -70.482956 41.0048828 -12.5416298 -4.2536302 1
520 -70.0332413 43.1830444 -13.7730789 -4.2825999 1
521 -68.5762177 42.60775 -11.8670368 -4.4088402 1
522 -65.0266495 43.0083389 -11.4183769 -4.35676 1
523 -61.3585892 43.0863876 -10.9621048 -4.29635 1
524 -57.5292549 41.8241883 -12.6363621 -4.30373 1
525 -59.3123779 43.3893204 -12.3867874 -4.3011198 1
526 -57.5677109 44.1098709 -13.9318486 -4.3404102 1
527 -55.6787071 42.3477097 -14.007988 -4.32867 1
528 -71.9398118 45.2244721 -13.4539356 -4.3031001 1
529 -69.8938066 45.7635269 -14.9023418 -4.17624 1
530 -68.6393814 45.2237396 -12.793129 -4.2634001 1
531 -68.5938645 47.3369217 -14.0121536 -4.12115 1
532 -66.9776536 46.7214279 -11.970026 -4.3076701 1
533 -66.6601944 45.8647538 -14.4092808 -4.3468399 1
534 -64.9416122 45.226944 -12.4543495 -4.35781 1
535 -64.8726654 47.3928986 -13.3471012 -4.20403 1
536 -62.8906594 45.5528183 -13.7385369 -4.2638602 1
537 -60.9945412 45.4041214 -11.795147 -4.2672601 1
538 -61.4197426 47.4464112 -13.084301 -4.2667198 1
539 -63.3743019 46.869873 -11.843073 -4.18506 1
540 -57.3112335 46.5464707 -15.0288925 -4.2529202 1
541 -59.3415184 45.4580002 -13.4799023 -4.1122799 1
542 -59.3616791 48.1414414 -14.4859009 -4.0468998 1
543 -63.2154045 33.2453079 -10.8938198 -4.3727799 1
544 -70.661911 36.5456009 -10.5202561 -4.35816 1
545 -68.5762787 35.0343475 -10.8768272 -4.2772598 1
546 -66.813675 36.4129334 -10.145813 -4.2900901 1
547 -65.0076752 34.8730774 -10.6242085 -4.1446199 1
548 -61.3626557 37.3033829 -10.998169 -4.3169799 1
549 -63.2482681 36.7928086 -9.7872391 -4.1178098 1
550 -61.2925186 34.841507 -10.0753651 -4.37711 1
551 -59.8080521 36.6483078 -9.3324871 -4.37216 1
552 -57.7479553 37.2638016 -10.5833321 -4.2845998 1
553 -72.359436 40.7127991 -11.193327 -4.3057099 1
554 -68.6482926 38.1768189 -9.7100582 -4.2389999 1
555 -68.8143769 40.476799 -10.6702118 -4.3234301 1
556 -67.2039719 40.2464829 -8.8340569 -4.2269502 1
557 -66.8426362 39.0675125 -11.0864906 -4.17307 1
558 -65.3325882 38.4892502 -9.439003 -4.3098002 1
559 -65.0195313 40.7375794 -10.0232677 -4.3566899 1
560 -63.2738457 40.2186127 -8.3347454 -4.2091799 1
561 -63.2025299 38.8320236 -10.6816712 -4.2095399 1
562 -61.6174355 38.4700165 -8.6215077 -4.2535701 1
563 -61.317421 40.4977646 -9.7314568 -4.2076998 1
564 -59.6574517 38.9588928 -10.0181408 -4.2877202 1
565 -70.4640122 42.0019836 -10.3107548 -4.2869301 1
566 -69.0715256 43.812973 -9.6971531 -4.3539801 1
567 -66.9288636 42.4915924 -9.7936497 -4.2841001 1
568 -65.3500366 41.9227066 -7.9397812 -4.3867898 1
569 -65.1836853 43.9478608 -9.2105045 -4.3417301 1
570 -63.1554337 42.340683 -9.2800713 -4.2572198 1
571 -59.8117752 42.4724884 -8.8686008 -4.37215 1
572 -59.5146485 41.1733017 -11.1440373 -4.3923602 1
573 -57.9232864 42.8916932 -10.3996372 -4.3917499 1
574 -70.4131775 44.5399246 -11.4718342 -4.31214 1
575 -67.1057205 44.58284 -11.1292095 -4.2660499 1
576 -65.2546616 46.2115936 -10.2647514 -4.4006901 1
577 -63.1571274 44.7157517 -10.5981579 -4.4165902 1
578 -59.7499466 44.5114517 -10.0859432 -4.22579 1
579 60.6653977 -43.4000511 10.4203949 -4.2663798 1
580 62.7522507 -41.7807923 10.5977555 -4.3558998 1
581 59.1028366 -41.4226151 10.2595406 -4.2501302 1
582 61.24543 -39.9100038 10.2427902 -4.3966298 1
583 63.455101 -38.6119347 9.985199 -4.2542801 1
584 64.9261856 -40.4002342 10.4982987 -4.4001999 1
585 66.9114152 -38.949028 10.4025231 -4.3756099 1
586 65.5141831 -37.0435944 9.8310013 -4.3270798 1
587 63.106987 -48.9061242 13.4101792 -4.4170599 1
588 66.3649216 -49.4689141 13.7588921 -4.2909699 1