ITEM: TIMESTEP
6
ITEM: NUMBER OF ATOMS
16
ITEM: BOX BOUNDS pp pp pp
0 5.090000153
0 6.739999771
0 4.53000021
ITEM: ATOMS x y z type id
3.183239937 1.684999943 3.850500107 1 1
7.906760216 5.054999828 0.6794999838 1 2
5.361760139 5.054999828 1.585500002 1 3
5.728240013 1.684999943 2.944499969 1 4
3.946739912 0.4246200025 1.485839963 1 5
7.143260002 6.315380096 3.044159889 1 6
6.491740227 2.945379972 0.7791600227 1 7
4.598259926 3.794620037 3.750839949 1 8
7.143260002 3.794620037 3.044159889 1 9
3.946739912 2.945379972 1.485839963 1 10
4.598259926 6.315380096 3.750839949 1 11
6.491740227 0.4246200025 0.7791600227 1 12
7.530099869 1.684999943 2.038500071 2 13
3.559900045 5.054999828 2.491499901 2 14
6.104899883 5.054999828 4.303500175 2 15
4.985099792 1.684999943 0.2265000045 2 16
ITEM: TIMESTEP
7
ITEM: NUMBER OF ATOMS
16
ITEM: BOX BOUNDS pp pp pp
0 5.090000153
0 6.739999771
0 4.53000021
ITEM: ATOMS x y z type id
3.683239937 1.684999943 3.850500107 1 1
8.406760216 5.054999828 0.6794999838 1 2
5.861760139 5.054999828 1.585500002 1 3
6.228240013 1.684999943 2.944499969 1 4
4.44674015 0.4246200025 1.485839963 1 5
7.643260002 6.315380096 3.044159889 1 6
6.991740227 2.945379972 0.7791600227 1 7
5.098259926 3.794620037 3.750839949 1 8
7.643260002 3.794620037 3.044159889 1 9
4.44674015 2.945379972 1.485839963 1 10
5.098259926 6.315380096 3.750839949 1 11
6.991740227 0.4246200025 0.7791600227 1 12
8.030099869 1.684999943 2.038500071 2 13
4.059899807 5.054999828 2.491499901 2 14
6.604899883 5.054999828 4.303500175 2 15
5.485099792 1.684999943 0.2265000045 2 16
ITEM: TIMESTEP
8
ITEM: NUMBER OF ATOMS
16
ITEM: BOX BOUNDS pp pp pp
0 5.090000153
0 6.739999771
0 4.53000021
ITEM: ATOMS x y z type id
4.183239937 1.684999943 3.850500107 1 1
8.906760216 5.054999828 0.6794999838 1 2
6.361760139 5.054999828 1.585500002 1 3
6.728240013 1.684999943 2.944499969 1 4
4.94674015 0.4246200025 1.485839963 1 5
8.143260002 6.315380096 3.044159889 1 6
7.491740227 2.945379972 0.7791600227 1 7
5.598259926 3.794620037 3.750839949 1 8
8.143260002 3.794620037 3.044159889 1 9
4.94674015 2.945379972 1.485839963 1 10
5.598259926 6.315380096 3.750839949 1 11
7.491740227 0.4246200025 0.7791600227 1 12
8.530099869 1.684999943 2.038500071 2 13
4.559899807 5.054999828 2.491499901 2 14
7.104899883 5.054999828 4.303500175 2 15
5.985099792 1.684999943 0.2265000045 2 16
ITEM: TIMESTEP
9
ITEM: NUMBER OF ATOMS
16
ITEM: BOX BOUNDS pp pp pp
0 5.090000153
0 6.739999771
0 4.53000021
ITEM: ATOMS x y z type id
4.683239937 1.684999943 3.850500107 1 1
9.406760216 5.054999828 0.6794999838 1 2
6.861760139 5.054999828 1.585500002 1 3
7.228240013 1.684999943 2.944499969 1 4
5.44674015 0.4246200025 1.485839963 1 5
8.643260002 6.315380096 3.044159889 1 6
7.991740227 2.945379972 0.7791600227 1 7
6.098259926 3.794620037 3.750839949 1 8
8.643260002 3.794620037 3.044159889 1 9
5.44674015 2.945379972 1.485839963 1 10
6.098259926 6.315380096 3.750839949 1 11
7.991740227 0.4246200025 0.7791600227 1 12
9.030099869 1.684999943 2.038500071 2 13
5.059899807 5.054999828 2.491499901 2 14
7.604899883 5.054999828 4.303500175 2 15
6.485099792 1.684999943 0.2265000045 2 16
ITEM: TIMESTEP
10
ITEM: NUMBER OF ATOMS
16
ITEM: BOX BOUNDS pp pp pp
0 5.090000153
0 6.739999771
0 4.53000021
ITEM: ATOMS x y z type id
5.183239937 1.684999943 3.850500107 1 1
9.906760216 5.054999828 0.6794999838 1 2
7.361760139 5.054999828 1.585500002 1 3
7.728240013 1.684999943 2.944499969 1 4
5.94674015 0.4246200025 1.485839963 1 5
9.143260002 6.315380096 3.044159889 1 6
8.491740227 2.945379972 0.7791600227 1 7
6.598259926 3.794620037 3.750839949 1 8
9.143260002 3.794620037 3.044159889 1 9
5.94674015 2.945379972 1.485839963 1 10
6.598259926 6.315380096 3.750839949 1 11
8.491740227 0.4246200025 0.7791600227 1 12
9.530099869 1.684999943 2.038500071 2 13
5.559899807 5.054999828 2.491499901 2 14
8.10490036 5.054999828 4.303500175 2 15
6.985099792 1.684999943 0.2265000045 2 16
