ITEM: TIMESTEP
0
ITEM: NUMBER OF ATOMS
16
ITEM: BOX BOUNDS pp pp pp
0 5.090000153
0 6.739999771
0 4.53000021
ITEM: ATOMS x y z type id
0.1832399964 1.684999943 3.850500107 1 1
4.906760216 5.054999828 0.6794999838 1 2
2.361759901 5.054999828 1.585500002 1 3
2.728240013 1.684999943 2.944499969 1 4
0.9467399716 0.4246200025 1.485839963 1 5
4.143260002 6.315380096 3.044159889 1 6
3.491739988 2.945379972 0.7791600227 1 7
1.598260045 3.794620037 3.750839949 1 8
4.143260002 3.794620037 3.044159889 1 9
0.9467399716 2.945379972 1.485839963 1 10
1.598260045 6.315380096 3.750839949 1 11
3.491739988 0.4246200025 0.7791600227 1 12
4.530099869 1.684999943 2.038500071 2 13
0.5598999858 5.054999828 2.491499901 2 14
3.104899883 5.054999828 4.303500175 2 15
1.985100031 1.684999943 0.2265000045 2 16
ITEM: TIMESTEP
1
ITEM: NUMBER OF ATOMS
16
ITEM: BOX BOUNDS pp pp pp
0 5.090000153
0 6.739999771
0 4.53000021
ITEM: ATOMS x y z type id
0.6832399964 1.684999943 3.850500107 1 1
5.406760216 5.054999828 0.6794999838 1 2
2.861759901 5.054999828 1.585500002 1 3
3.228240013 1.684999943 2.944499969 1 4
1.446739912 0.4246200025 1.485839963 1 5
4.643260002 6.315380096 3.044159889 1 6
3.991739988 2.945379972 0.7791600227 1 7
2.098259926 3.794620037 3.750839949 1 8
4.643260002 3.794620037 3.044159889 1 9
1.446739912 2.945379972 1.485839963 1 10
2.098259926 6.315380096 3.750839949 1 11
3.991739988 0.4246200025 0.7791600227 1 12
5.030099869 1.684999943 2.038500071 2 13
1.059900045 5.054999828 2.491499901 2 14
3.604899883 5.054999828 4.303500175 2 15
2.485100031 1.684999943 0.2265000045 2 16
ITEM: TIMESTEP
2
ITEM: NUMBER OF ATOMS
16
ITEM: BOX BOUNDS pp pp pp
0 5.090000153
0 6.739999771
0 4.53000021
ITEM: ATOMS x y z type id
1.183239937 1.684999943 3.850500107 1 1
5.906760216 5.054999828 0.6794999838 1 2
3.361759901 5.054999828 1.585500002 1 3
3.728240013 1.684999943 2.944499969 1 4
1.946739912 0.4246200025 1.485839963 1 5
5.143260002 6.315380096 3.044159889 1 6
4.491740227 2.945379972 0.7791600227 1 7
2.598259926 3.794620037 3.750839949 1 8
5.143260002 3.794620037 3.044159889 1 9
1.946739912 2.945379972 1.485839963 1 10
2.598259926 6.315380096 3.750839949 1 11
4.491740227 0.4246200025 0.7791600227 1 12
5.530099869 1.684999943 2.038500071 2 13
1.559900045 5.054999828 2.491499901 2 14
4.104899883 5.054999828 4.303500175 2 15
2.985100031 1.684999943 0.2265000045 2 16
ITEM: TIMESTEP
3
ITEM: NUMBER OF ATOMS
16
ITEM: BOX BOUNDS pp pp pp
0 5.090000153
0 6.739999771
0 4.53000021
ITEM: ATOMS x y z type id
1.683239937 1.684999943 3.850500107 1 1
6.406760216 5.054999828 0.6794999838 1 2
3.861759901 5.054999828 1.585500002 1 3
4.228240013 1.684999943 2.944499969 1 4
2.446739912 0.4246200025 1.485839963 1 5
5.643260002 6.315380096 3.044159889 1 6
4.991740227 2.945379972 0.7791600227 1 7
3.098259926 3.794620037 3.750839949 1 8
5.643260002 3.794620037 3.044159889 1 9
2.446739912 2.945379972 1.485839963 1 10
3.098259926 6.315380096 3.750839949 1 11
4.991740227 0.4246200025 0.7791600227 1 12
6.030099869 1.684999943 2.038500071 2 13
2.059900045 5.054999828 2.491499901 2 14
4.604899883 5.054999828 4.303500175 2 15
3.485100031 1.684999943 0.2265000045 2 16
