ITEM: TIMESTEP
4
ITEM: NUMBER OF ATOMS
16
ITEM: BOX BOUNDS pp pp pp
0 5.090000153
0 6.739999771
0 4.53000021
ITEM: ATOMS x y z type id
2.183239937 1.684999943 3.850500107 1 1
6.906760216 5.054999828 0.6794999838 1 2
4.361760139 5.054999828 1.585500002 1 3
4.728240013 1.684999943 2.944499969 1 4
2.946739912 0.4246200025 1.485839963 1 5
6.143260002 6.315380096 3.044159889 1 6
5.491740227 2.945379972 0.7791600227 1 7
3.598259926 3.794620037 3.750839949 1 8
6.143260002 3.794620037 3.044159889 1 9
2.946739912 2.945379972 1.485839963 1 10
3.598259926 6.315380096 3.750839949 1 11
5.491740227 0.4246200025 0.7791600227 1 12
6.530099869 1.684999943 2.038500071 2 13
2.559900045 5.054999828 2.491499901 2 14
5.104899883 5.054999828 4.303500175 2 15
3.985100031 1.684999943 0.2265000045 2 16
ITEM: TIMESTEP
5
ITEM: NUMBER OF ATOMS
16
ITEM: BOX BOUNDS pp pp pp
0 5.090000153
0 6.739999771
0 4.53000021
ITEM: ATOMS x y z type id
2.683239937 1.684999943 3.850500107 1 1
7.406760216 5.054999828 0.6794999838 1 2
4.861760139 5.054999828 1.585500002 1 3
5.228240013 1.684999943 2.944499969 1 4
3.446739912 0.4246200025 1.485839963 1 5
6.643260002 6.315380096 3.044159889 1 6
5.991740227 2.945379972 0.7791600227 1 7
4.098259926 3.794620037 3.750839949 1 8
6.643260002 3.794620037 3.044159889 1 9
3.446739912 2.945379972 1.485839963 1 10
4.098259926 6.315380096 3.750839949 1 11
5.991740227 0.4246200025 0.7791600227 1 12
7.030099869 1.684999943 2.038500071 2 13
3.059900045 5.054999828 2.491499901 2 14
5.604899883 5.054999828 4.303500175 2 15
4.485099792 1.684999943 0.2265000045 2 16
