ITEM: TIMESTEP
0
ITEM: NUMBER OF ATOMS
32
ITEM: BOX BOUNDS pp pp pp
0 3.35919
0 3.35919
0 3.35919
ITEM: ATOMS id type xs ys zs
1 1 0 0 0
2 1 0.25 0.25 0
3 1 0.25 0 0.25
4 1 0 0.25 0.25
5 1 0.5 0 0
6 1 0.75 0.25 0
7 1 0.75 0 0.25
8 1 0.5 0.25 0.25
9 1 0 0.5 0
10 1 0.25 0.75 0
11 1 0.25 0.5 0.25
12 1 0 0.75 0.25
13 1 0.5 0.5 0
14 1 0.75 0.75 0
15 1 0.75 0.5 0.25
16 1 0.5 0.75 0.25
17 1 0 0 0.5
18 1 0.25 0.25 0.5
19 1 0.25 0 0.75
20 1 0 0.25 0.75
21 1 0.5 0 0.5
22 1 0.75 0.25 0.5
23 1 0.75 0 0.75
24 1 0.5 0.25 0.75
25 1 0 0.5 0.5
26 1 0.25 0.75 0.5
27 1 0.25 0.5 0.75
28 1 0 0.75 0.75
29 1 0.5 0.5 0.5
30 1 0.75 0.75 0.5
31 1 0.75 0.5 0.75
32 1 0.5 0.75 0.75
ITEM: TIMESTEP
1000
ITEM: NUMBER OF ATOMS
32
ITEM: BOX BOUNDS pp pp pp
0 3.35919
0 3.35919
0 3.35919
ITEM: ATOMS id type xs ys zs
3 1 0.265226 0.0692803 0.246199
11 1 0.242145 0.417515 0.203397
4 1 0.98232 0.266427 0.291821
8 1 0.553373 0.260029 0.235931
1 1 0.00911075 0.956347 0.0582956
12 1 0.127566 0.713322 0.27314
13 1 0.483423 0.510406 0.00268925
16 1 0.441569 0.684633 0.277828
7 1 0.772973 0.978909 0.235698
15 1 0.801242 0.661938 0.224214
17 1 0.991855 0.945325 0.437315
2 1 0.21204 0.264843 0.958654
5 1 0.485844 0.0177532 0.92406
18 1 0.242283 0.276187 0.543639
21 1 0.474643 0.0549883 0.53951
27 1 0.290934 0.494797 0.765237
29 1 0.484326 0.482126 0.504959
6 1 0.793169 0.197535 0.992848
9 1 0.942867 0.462946 0.988016
20 1 0.978369 0.238728 0.735251
22 1 0.751884 0.291759 0.515619
23 1 0.773971 0.0154595 0.748893
24 1 0.521423 0.271317 0.751363
31 1 0.741433 0.474828 0.766535
10 1 0.215065 0.693922 0.969481
19 1 0.209844 0.95008 0.791905
25 1 0.066985 0.516076 0.53212
26 1 0.265795 0.777988 0.555741
14 1 0.731456 0.765488 0.954786
28 1 0.958919 0.749076 0.712252
30 1 0.68782 0.826328 0.50411
32 1 0.500129 0.713641 0.758492
ITEM: TIMESTEP
2000
ITEM: NUMBER OF ATOMS
32
ITEM: BOX BOUNDS pp pp pp
0 3.35919
0 3.35919
0 3.35919
ITEM: ATOMS id type xs ys zs
3 1 0.208668 0.0770284 0.212132
11 1 0.286261 0.48261 0.408457
4 1 0.0219399 0.329802 0.383322
8 1 0.466405 0.284843 0.261494
9 1 0.0759912 0.31925 0.0773634
7 1 0.749346 0.141873 0.325372
15 1 0.752979 0.392145 0.100008
22 1 0.68012 0.468904 0.415071
12 1 0.0245237 0.683198 0.242589
17 1 0.024928 0.986667 0.417109
21 1 0.499208 0.990871 0.486785
26 1 0.296288 0.812705 0.334324
1 1 0.963593 0.985061 0.0227601
16 1 0.52271 0.624318 0.23547
5 1 0.513306 0.946873 0.148323
14 1 0.719306 0.737932 0.0671361
30 1 0.763175 0.796214 0.378644
13 1 0.468664 0.415103 0.957517
2 1 0.320012 0.118242 0.900082
18 1 0.223898 0.173259 0.619303
6 1 0.66223 0.126704 0.932457
20 1 0.929727 0.298507 0.757797
24 1 0.574729 0.29367 0.644904
27 1 0.241913 0.548987 0.718917
29 1 0.484224 0.655297 0.561155
10 1 0.261864 0.821475 0.989037
19 1 0.219906 0.846509 0.661395
23 1 0.828339 0.96441 0.644114
31 1 0.700817 0.552011 0.779328
25 1 0.972897 0.624016 0.596265
28 1 0.987342 0.620213 0.9303
32 1 0.554691 0.881305 0.791068
ITEM: TIMESTEP
3000
ITEM: NUMBER OF ATOMS
32
ITEM: BOX BOUNDS pp pp pp
0 3.35919
0 3.35919
0 3.35919
ITEM: ATOMS id type xs ys zs
3 1 0.00831455 0.223759 0.495979
8 1 0.228835 0.0521057 0.156942
9 1 0.310962 0.398106 0.0834097
27 1 0.267963 0.29324 0.396361
7 1 0.577855 0.196667 0.257051
15 1 0.84273 0.363404 0.0796667
22 1 0.772065 0.488033 0.456705
1 1 0.877351 0.0748551 0.213668
11 1 0.305381 0.746814 0.0607475
12 1 0.0795697 0.565353 0.222363
17 1 0.0858985 0.868967 0.375892
21 1 0.413288 0.929242 0.40705
13 1 0.458074 0.522984 0.492653
19 1 0.0018093 0.85244 0.0196731
16 1 0.561008 0.587027 0.222687
5 1 0.602391 0.849903 0.0916453
30 1 0.755827 0.826081 0.380796
2 1 0.250056 0.32122 0.748781
18 1 0.178411 0.0259961 0.647569
20 1 0.0480728 0.140499 0.951561
32 1 0.374104 0.0220432 0.889421
6 1 0.569275 0.286699 0.892096
24 1 0.59605 0.189507 0.566697
23 1 0.780425 0.0714213 0.810974
31 1 0.865233 0.367851 0.780812
4 1 0.0763255 0.546874 0.557341
26 1 0.275918 0.748657 0.655977
10 1 0.462124 0.575275 0.840572
28 1 0.0876459 0.536631 0.926054
14 1 0.780329 0.646742 0.946013
29 1 0.564931 0.863126 0.679003
25 1 0.941778 0.818478 0.693843
ITEM: TIMESTEP
4000
ITEM: NUMBER OF ATOMS
32
ITEM: BOX BOUNDS pp pp pp
0 3.35919
0 3.35919
0 3.35919
ITEM: ATOMS id type xs ys zs
9 1 0.348863 0.426098 0.0499264
27 1 0.128032 0.309699 0.252674
21 1 0.307781 0.162432 0.460176
19 1 0.119128 0.0666884 0.0720286
3 1 0.994662 0.0477689 0.470349
7 1 0.515565 0.332541 0.271869
22 1 0.753971 0.437425 0.463907
1 1 0.824959 0.188469 0.217249
24 1 0.663968 0.023715 0.439461
11 1 0.117084 0.633373 0.205687
17 1 0.335514 0.870377 0.316132
13 1 0.344931 0.55175 0.499157
15 1 0.834876 0.502576 0.167404
16 1 0.506373 0.639745 0.239106
5 1 0.554255 0.96813 0.131367
30 1 0.817583 0.790764 0.308114
2 1 0.0454843 0.370777 0.605279
18 1 0.284239 0.146422 0.829155
20 1 0.062987 0.383139 0.944794
23 1 0.843241 0.161355 0.713815
31 1 0.599266 0.236053 0.97834
10 1 0.524654 0.288544 0.659101
8 1 0.324774 0.804617 0.987964
12 1 0.036587 0.709208 0.503103
26 1 0.354238 0.891346 0.637271
28 1 0.220805 0.586865 0.794345
25 1 0.0662007 0.906758 0.801927
32 1 0.55228 0.574316 0.874133
6 1 0.631862 0.95847 0.778214
4 1 0.844016 0.552621 0.786222
14 1 0.808275 0.7764 0.98866
29 1 0.633546 0.701558 0.553072
ITEM: TIMESTEP
5000
ITEM: NUMBER OF ATOMS
32
ITEM: BOX BOUNDS pp pp pp
0 3.35919
0 3.35919
0 3.35919
ITEM: ATOMS id type xs ys zs
9 1 0.216903 0.336793 0.145706
27 1 0.14568 0.00442916 0.179726
21 1 0.262822 0.256925 0.450906
7 1 0.451347 0.0837495 0.270497
22 1 0.958782 0.380749 0.387452
1 1 0.758615 0.161971 0.467728
16 1 0.652857 0.380517 0.239417
5 1 0.786123 0.118863 0.138008
11 1 0.173374 0.649077 0.161912
17 1 0.307093 0.863043 0.429511
13 1 0.436365 0.565787 0.345206
32 1 0.437057 0.530588 0.0192299
30 1 0.981165 0.769786 0.374183
14 1 0.782621 0.654706 0.123838
29 1 0.669124 0.850698 0.368916
19 1 0.0161008 0.466317 0.917353
3 1 0.0359678 0.0781824 0.593265
20 1 0.304826 0.331518 0.790018
31 1 0.477087 0.141328 0.943913
25 1 0.0775919 0.151983 0.928752
24 1 0.507039 0.0613916 0.657056
23 1 0.787423 0.170232 0.790086
10 1 0.550049 0.360817 0.579245
18 1 0.344479 0.847729 0.999904
12 1 0.137321 0.576422 0.547677
26 1 0.220626 0.858898 0.70791
15 1 0.749042 0.531702 0.816095
2 1 0.802761 0.587389 0.538664
8 1 0.6856 0.889309 0.941218
28 1 0.987859 0.763432 0.872565
6 1 0.503059 0.7058 0.632857
4 1 0.79324 0.869866 0.641186
ITEM: TIMESTEP
6000
ITEM: NUMBER OF ATOMS
32
ITEM: BOX BOUNDS pp pp pp
0 3.35919
0 3.35919
0 3.35919
ITEM: ATOMS id type xs ys zs
9 1 0.278566 0.45346 0.199232
27 1 0.214766 0.115752 0.239221
21 1 0.0970214 0.44148 0.462938
7 1 0.439117 0.222763 0.073729
16 1 0.489817 0.23293 0.445025
22 1 0.944036 0.284629 0.168216
3 1 0.681047 0.0946865 0.217912
2 1 0.62687 0.435358 0.224959
17 1 0.365908 0.807161 0.428015
19 1 0.0852222 0.711585 0.236296
18 1 0.353423 0.854379 0.0966228
5 1 0.920473 0.930455 0.0717259
11 1 0.833413 0.613132 0.42279
30 1 0.918265 0.963023 0.403757
14 1 0.871645 0.58817 0.0613893
29 1 0.607592 0.746159 0.229839
20 1 0.305697 0.376969 0.846799
25 1 0.167616 0.0275607 0.898023
26 1 0.159565 0.0901719 0.554799
31 1 0.725899 0.288128 0.949621
24 1 0.56761 0.202655 0.714222
23 1 0.861562 0.0323368 0.736303
10 1 0.811018 0.23251 0.503053
15 1 0.934644 0.380977 0.738202
12 1 0.0734278 0.737659 0.590776
28 1 0.142255 0.650422 0.905573
6 1 0.386622 0.841506 0.763979
1 1 0.630957 0.92209 0.540103
13 1 0.511404 0.543581 0.595993
32 1 0.557705 0.549671 0.941688
8 1 0.633968 0.918309 0.954425
4 1 0.80287 0.710327 0.784774
ITEM: TIMESTEP
7000
ITEM: NUMBER OF ATOMS
32
ITEM: BOX BOUNDS pp pp pp
0 3.35919
0 3.35919
0 3.35919
ITEM: ATOMS id type xs ys zs
9 1 0.286549 0.493773 0.173332
27 1 0.027945 0.238768 0.0396503
7 1 0.302766 0.139437 0.0702135
16 1 0.222865 0.258891 0.338988
22 1 0.882125 0.211886 0.303476
2 1 0.520978 0.252368 0.286411
25 1 0.799257 0.463129 0.13744
31 1 0.68163 0.152216 0.0145156
13 1 0.729233 0.431887 0.488615
19 1 0.313146 0.753446 0.361396
18 1 0.368029 0.787264 0.0118177
5 1 0.0561147 0.725422 0.0861227
30 1 0.0885992 0.9827 0.259223
14 1 0.0769507 0.533703 0.399011
3 1 0.608723 0.928028 0.316839
17 1 0.554785 0.602973 0.296591
11 1 0.878424 0.74101 0.382019
29 1 0.692482 0.810599 0.0565637
21 1 0.379562 0.477789 0.536923
20 1 0.266551 0.488411 0.857323
26 1 0.0861185 0.291203 0.62267
10 1 0.487528 0.267512 0.721265
6 1 0.42792 0.0286103 0.523186
15 1 0.827188 0.311452 0.76631
1 1 0.766722 0.0609571 0.564103
32 1 0.550262 0.467942 0.991653
24 1 0.22671 0.998876 0.804754
12 1 0.107029 0.871344 0.552054
28 1 0.402999 0.749598 0.659608
23 1 0.882002 0.920946 0.824207
8 1 0.538457 0.96835 0.828579
4 1 0.96035 0.58951 0.72514
ITEM: TIMESTEP
8000
ITEM: NUMBER OF ATOMS
32
ITEM: BOX BOUNDS pp pp pp
0 3.35919
0 3.35919
0 3.35919
ITEM: ATOMS id type xs ys zs
9 1 0.337875 0.412739 0.158926
27 1 0.0358396 0.361858 0.150413
7 1 0.242704 0.115178 0.010134
16 1 0.241575 0.185757 0.332646
22 1 0.816157 0.199831 0.361699
2 1 0.527842 0.151976 0.229009
25 1 0.741516 0.432945 0.163424
19 1 0.3397 0.91736 0.225115
5 1 0.138019 0.670841 0.0635818
30 1 0.0104846 0.99429 0.209232
17 1 0.487839 0.632545 0.355544
14 1 0.88516 0.626825 0.351466
11 1 0.673175 0.861389 0.243354
29 1 0.845591 0.727404 0.0299957
32 1 0.526409 0.646536 0.0611472
12 1 0.906041 0.896622 0.488584
21 1 0.362845 0.404248 0.539806
20 1 0.231782 0.439555 0.862138
26 1 0.0349809 0.230764 0.63882
24 1 0.387792 0.0813716 0.715212
31 1 0.821631 0.136166 0.962736
13 1 0.67872 0.42777 0.582827
10 1 0.535773 0.331464 0.87128
15 1 0.859062 0.449225 0.869614
1 1 0.749264 0.0787132 0.687793
6 1 0.225933 0.821246 0.528869
28 1 0.455593 0.628073 0.74548
23 1 0.0611136 0.916566 0.814082
4 1 0.0530474 0.588518 0.634274
18 1 0.563574 0.946874 0.918794
3 1 0.506845 0.901299 0.503299
8 1 0.71612 0.784049 0.690704
ITEM: TIMESTEP
9000
ITEM: NUMBER OF ATOMS
32
ITEM: BOX BOUNDS pp pp pp
0 3.35919
0 3.35919
0 3.35919
ITEM: ATOMS id type xs ys zs
9 1 0.472527 0.194331 0.392063
7 1 0.0724256 0.22209 0.0201557
16 1 0.25789 0.000601799 0.226724
17 1 0.283164 0.370919 0.225349
2 1 0.908477 0.15204 0.280465
25 1 0.690254 0.343924 0.215195
31 1 0.616139 0.018646 0.166293
13 1 0.584048 0.473717 0.481844
19 1 0.436625 0.701507 0.310719
5 1 0.346503 0.785429 0.00448523
14 1 0.0748471 0.682109 0.333514
27 1 0.966805 0.575003 0.0669114
30 1 0.966286 0.897951 0.126989
11 1 0.780471 0.64131 0.308004
3 1 0.69378 0.925693 0.439397
21 1 0.21056 0.419062 0.503034
20 1 0.221204 0.489676 0.872583
26 1 0.0841871 0.197483 0.715901
24 1 0.405389 0.281488 0.689079
10 1 0.439062 0.197287 0.996772
22 1 0.894253 0.446718 0.536984
15 1 0.827822 0.354485 0.855023
1 1 0.728652 0.209262 0.603346
23 1 0.828699 0.0511754 0.861414
6 1 0.311943 0.987828 0.553865
28 1 0.353036 0.687834 0.639476
4 1 0.0386627 0.811547 0.814196
29 1 0.725319 0.777095 0.95989
32 1 0.537041 0.537982 0.859141
12 1 0.986977 0.911484 0.512672
18 1 0.524937 0.961842 0.779942
8 1 0.732014 0.692484 0.648573
ITEM: TIMESTEP
10000
ITEM: NUMBER OF ATOMS
32
ITEM: BOX BOUNDS pp pp pp
0 3.35919
0 3.35919
0 3.35919
ITEM: ATOMS id type xs ys zs
9 1 0.392566 0.340249 0.450159
17 1 0.371797 0.369791 0.131912
2 1 0.155777 0.208082 0.292969
31 1 0.375113 0.0281685 0.175478
27 1 0.0471658 0.429712 0.120252
25 1 0.639086 0.113141 0.349767
30 1 0.96523 0.0363712 0.111692
11 1 0.694706 0.490172 0.196687
22 1 0.906829 0.357192 0.407731
23 1 0.648301 0.14639 0.0179562
16 1 0.162893 0.764936 0.131399
19 1 0.4251 0.690409 0.296859
21 1 0.191789 0.680825 0.489601
12 1 0.0363825 0.93911 0.455779
14 1 0.939585 0.65371 0.30564
3 1 0.747717 0.85718 0.48775
29 1 0.664483 0.856101 0.125889
7 1 0.152263 0.16508 0.919839
26 1 0.0906581 0.317382 0.656622
24 1 0.453672 0.320035 0.784099
6 1 0.287439 0.0662738 0.619361
15 1 0.847904 0.406471 0.892756
1 1 0.808647 0.149864 0.620241
5 1 0.412965 0.930691 0.90165
20 1 0.175521 0.535464 0.871504
10 1 0.119957 0.859703 0.784451
28 1 0.464518 0.824138 0.605258
13 1 0.615372 0.549527 0.524433
4 1 0.903601 0.70388 0.985909
32 1 0.60406 0.624436 0.820483
18 1 0.812004 0.935151 0.801082
8 1 0.886895 0.650365 0.664791
