ITEM: TIMESTEP
0
ITEM: NUMBER OF ATOMS
32
ITEM: BOX BOUNDS pp pp pp
0 3.35919
0 3.35919
0 3.35919
ITEM: ATOMS id type xs ys zs
1 1 0 0 0
2 1 0.25 0.25 0
3 1 0.25 0 0.25
4 1 0 0.25 0.25
5 1 0.5 0 0
6 1 0.75 0.25 0
7 1 0.75 0 0.25
8 1 0.5 0.25 0.25
9 1 0 0.5 0
10 1 0.25 0.75 0
11 1 0.25 0.5 0.25
12 1 0 0.75 0.25
13 1 0.5 0.5 0
14 1 0.75 0.75 0
15 1 0.75 0.5 0.25
16 1 0.5 0.75 0.25
17 1 0 0 0.5
18 1 0.25 0.25 0.5
19 1 0.25 0 0.75
20 1 0 0.25 0.75
21 1 0.5 0 0.5
22 1 0.75 0.25 0.5
23 1 0.75 0 0.75
24 1 0.5 0.25 0.75
25 1 0 0.5 0.5
26 1 0.25 0.75 0.5
27 1 0.25 0.5 0.75
28 1 0 0.75 0.75
29 1 0.5 0.5 0.5
30 1 0.75 0.75 0.5
31 1 0.75 0.5 0.75
32 1 0.5 0.75 0.75
ITEM: TIMESTEP
1000
ITEM: NUMBER OF ATOMS
32
ITEM: BOX BOUNDS pp pp pp
0 3.35919
0 3.35919
0 3.35919
ITEM: ATOMS id type xs ys zs
3 1 0.265226 0.0692803 0.246199
11 1 0.242145 0.417515 0.203397
4 1 0.98232 0.266427 0.291821
8 1 0.553373 0.260029 0.235931
1 1 0.00911075 0.956347 0.0582956
12 1 0.127566 0.713322 0.27314
13 1 0.483423 0.510406 0.00268925
16 1 0.441569 0.684633 0.277828
7 1 0.772973 0.978909 0.235698
15 1 0.801242 0.661938 0.224214
17 1 0.991855 0.945325 0.437315
2 1 0.21204 0.264843 0.958654
5 1 0.485844 0.0177532 0.92406
18 1 0.242283 0.276187 0.543639
21 1 0.474643 0.0549883 0.53951
27 1 0.290934 0.494797 0.765237
29 1 0.484326 0.482126 0.504959
6 1 0.793169 0.197535 0.992848
9 1 0.942867 0.462946 0.988016
20 1 0.978369 0.238728 0.735251
22 1 0.751884 0.291759 0.515619
23 1 0.773971 0.0154595 0.748893
24 1 0.521423 0.271317 0.751363
31 1 0.741433 0.474828 0.766535
10 1 0.215065 0.693922 0.969481
19 1 0.209844 0.95008 0.791905
25 1 0.066985 0.516076 0.53212
26 1 0.265795 0.777988 0.555741
14 1 0.731456 0.765488 0.954786
28 1 0.958919 0.749076 0.712252
30 1 0.68782 0.826328 0.50411
32 1 0.500129 0.713641 0.758492
ITEM: TIMESTEP
2000
ITEM: NUMBER OF ATOMS
32
ITEM: BOX BOUNDS pp pp pp
0 3.35919
0 3.35919
0 3.35919
ITEM: ATOMS id type xs ys zs
3 1 0.208668 0.0770284 0.212132
11 1 0.286261 0.48261 0.408457
4 1 0.0219399 0.329802 0.383322
8 1 0.466405 0.284843 0.261494
9 1 0.0759912 0.31925 0.0773634
7 1 0.749346 0.141873 0.325372
15 1 0.752979 0.392145 0.100008
22 1 0.68012 0.468904 0.415071
12 1 0.0245237 0.683198 0.242589
17 1 0.024928 0.986667 0.417109
21 1 0.499208 0.990871 0.486785
26 1 0.296288 0.812705 0.334324
1 1 0.963593 0.985061 0.0227601
16 1 0.52271 0.624318 0.23547
5 1 0.513306 0.946873 0.148323
14 1 0.719306 0.737932 0.0671361
30 1 0.763175 0.796214 0.378644
13 1 0.468664 0.415103 0.957517
2 1 0.320012 0.118242 0.900082
18 1 0.223898 0.173259 0.619303
6 1 0.66223 0.126704 0.932457
20 1 0.929727 0.298507 0.757797
24 1 0.574729 0.29367 0.644904
27 1 0.241913 0.548987 0.718917
29 1 0.484224 0.655297 0.561155
10 1 0.261864 0.821475 0.989037
19 1 0.219906 0.846509 0.661395
23 1 0.828339 0.96441 0.644114
31 1 0.700817 0.552011 0.779328
25 1 0.972897 0.624016 0.596265
28 1 0.987342 0.620213 0.9303
32 1 0.554691 0.881305 0.791068
ITEM: TIMESTEP
3000
ITEM: NUMBER OF ATOMS
32
ITEM: BOX BOUNDS pp pp pp
0 3.35919
0 3.35919
0 3.35919
ITEM: ATOMS id type xs ys zs
3 1 0.00831455 0.223759 0.495979
8 1 0.228835 0.0521057 0.156942
9 1 0.310962 0.398106 0.0834097
27 1 0.267963 0.29324 0.396361
7 1 0.577855 0.196667 0.257051
15 1 0.84273 0.363404 0.0796667
22 1 0.772065 0.488033 0.456705
1 1 0.877351 0.0748551 0.213668
11 1 0.305381 0.746814 0.0607475
12 1 0.0795697 0.565353 0.222363
17 1 0.0858985 0.868967 0.375892
21 1 0.413288 0.929242 0.40705
13 1 0.458074 0.522984 0.492653
19 1 0.0018093 0.85244 0.0196731
16 1 0.561008 0.587027 0.222687
5 1 0.602391 0.849903 0.0916453
