# vtk DataFile Version 3.1
# created by ThomsonTetrahedron_v2.py (@author: A. Prakash). Rotation Matrices File: rotmat_nonRand.dat
ASCII
DATASET UNSTRUCTURED_GRID
POINTS 4 FLOAT
	 0.000000 	 0.000000 	 0.000000
	 10.000000 	 0.000000 	 10.000000
	 0.000000 	 10.000000 	 10.000000
	 10.000000 	 10.000000 	 0.000000
CELLS 4 16
3 0 2 3
3 0 3 1
3 0 1 2
3 1 2 3
CELL_TYPES 4
5
5
5
5
CELL_DATA 4
COLOR_SCALARS faceColor 4
1.0 0.0 0.0 1.0
0.0 1.0 0.0 1.0
0.0 0.0 1.0 1.0
1.0 1.0 1.0 1.0
