101
energy=0.00000000 virial="0.00000000       0.00000000       0.00000000       0.00000000       0.00000000       0.00000000       0.00000000       0.00000000       0.00000000" cutoff=3.92580000 nneightol=1.20000000 Lattice="22.00000000       0.00000000       0.00000000       0.00000000      22.00000000       0.00000000       0.00000000       0.00000000      22.00000000" Properties=species:S:1:pos:R:3:Z:I:1:map_shift:I:3:n_neighb:I:1:force:R:3:log:L:1:s:S:1
Si              1.43615142      1.34829244      1.34829310      14      -1      -1      -1       0      0.00000000      0.00000000      0.00000000    T 0000000000
Si              0.02483580     -0.00691328      0.03238444      14       0       0       0       0      0.00000000      0.00000000      0.00000000    T 0000000000
Si              2.79896056      2.75837166     -0.02347378      14      -3      -3       0       0      0.00000000      0.00000000      0.00000000    T 0000000000
Si              2.73209816     -0.09566392      2.63375420      14      -3       0      -3       0      0.00000000      0.00000000      0.00000000    T 0000000000
Si             -0.04540118      2.64938476      2.79328236      14       0      -3      -3       0      0.00000000      0.00000000      0.00000000    F 0000000000
Si              1.34361700     -1.37960548     -1.43317570      14      -1       1       1       0      0.00000000      0.00000000      0.00000000    T 0000000000
Si             -1.28250320      1.32083732     -1.37610308      14       1      -1       1       0      0.00000000      0.00000000      0.00000000    F 0000000000
Si             -1.34838726     -1.34534642      1.32428252      14       1       1      -1       0      0.00000000      0.00000000      0.00000000    F 0000000000
Si              4.08984312      1.39692322     -1.35143162      14      -4      -1       1       0      0.00000000      0.00000000      0.00000000    T 0000000000
Si              1.32400774      4.05696808     -1.30714386      14      -1      -4       1       0      0.00000000      0.00000000      0.00000000    T 0000000000
Si              4.10712808      4.05682904      1.33671362      14      -4      -4      -1       0      0.00000000      0.00000000      0.00000000    T 0000000000
Si              4.06453938     -1.34343682      1.40877726      14      -4       1      -1       0      0.00000000      0.00000000      0.00000000    T 0000000000
Si              1.32774400     -1.34193026      4.15690176      14      -1       1      -4       0      0.00000000      0.00000000      0.00000000    T 0000000000
Si              4.05188564      1.30935838      4.09571228      14      -4      -1      -4       0      0.00000000      0.00000000      0.00000000    T 0000000000
Si             -1.33979736      4.17430926      1.36872890      14       1      -4      -1       0      0.00000000      0.00000000      0.00000000    F 0000000000
Si             -1.36132568      1.36301154      4.20316204      14       1      -1      -4       0      0.00000000      0.00000000      0.00000000    F 0000000000
Si              1.34871110      4.08337644      4.00876256      14      -1      -4      -4       0      0.00000000      0.00000000      0.00000000    T 0000000000
Si              0.05281870     -2.67427292     -2.76896114      14       0       3       3       0      0.00000000      0.00000000      0.00000000    T 0000000000
Si              2.70314198     -0.05698990     -2.79502168      14      -3       0       3       0      0.00000000      0.00000000      0.00000000    T 0000000000
Si              2.81090876     -2.64260194     -0.04233328      14      -3       3       0       0      0.00000000      0.00000000      0.00000000    T 0000000000
Si             -2.78474614     -0.01800150     -2.79101944      14       3       0       3       0      0.00000000      0.00000000      0.00000000    F 0000000000
Si             -0.05021808      2.72751886     -2.78994056      14       0      -3       3       0      0.00000000      0.00000000      0.00000000    F 0000000000
Si             -2.72117758      2.66731564     -0.05375150      14       3      -3       0       0      0.00000000      0.00000000      0.00000000    F 0000000000
Si             -2.69639172     -2.75127050     -0.03798718      14       3       3       0       0      0.00000000      0.00000000      0.00000000    F 0000000000
Si             -2.68840704     -0.01101540      2.57827350      14       3       0      -3       0      0.00000000      0.00000000      0.00000000    F 0000000000
Si             -0.00772002     -2.63827564      2.69951022      14       0       3      -3       0      0.00000000      0.00000000      0.00000000    F 0000000000
Si              5.45080074      2.61912354     -2.70085706      14      -5      -3       3       0      0.00000000      0.00000000      0.00000000    T 0000000000
Si              5.46396818     -0.03395502     -0.01410794      14      -5       0       0       0      0.00000000      0.00000000      0.00000000    T 0000000000
Si              2.63473232      5.43582974     -2.66704900      14      -3      -5       3       0      0.00000000      0.00000000      0.00000000    T 0000000000
Si             -0.01135838      5.32870888     -0.01770868      14       0      -5       0       0      0.00000000      0.00000000      0.00000000    F 0000000000
Si              5.42360038      5.49790934     -0.02604426      14      -5      -5       0       0      0.00000000      0.00000000      0.00000000    T 0000000000
Si              2.67305148      5.47338132      2.65238622      14      -3      -5      -3       0      0.00000000      0.00000000      0.00000000    T 0000000000
Si              5.42279452      2.71875494      2.76491204      14      -5      -3      -3       0      0.00000000      0.00000000      0.00000000    T 0000000000
Si              5.49647318     -2.71387028      2.78470500      14      -5       3      -3       0      0.00000000      0.00000000      0.00000000    T 0000000000
Si             -0.05711200      0.00082764      5.42225178      14       0       0      -5       0      0.00000000      0.00000000      0.00000000    F 0000000000
Si              2.76200342     -2.78624940      5.43061112      14      -3       3      -5       0      0.00000000      0.00000000      0.00000000    T 0000000000
Si              2.67378518      2.77288132      5.46503826      14      -3      -3      -5       0      0.00000000      0.00000000      0.00000000    T 0000000000
Si              5.49788492     -0.03007620      5.55403662      14      -5       0      -6       0      0.00000000      0.00000000      0.00000000    T 0000000000
Si             -2.57725094      5.46976562      2.65633742      14       3      -5      -3       0      0.00000000      0.00000000      0.00000000    F 0000000000
Si             -2.74004456      2.67985542      5.40637108      14       3      -3      -5       0      0.00000000      0.00000000      0.00000000    F 0000000000
Si             -0.00972246      5.51181972      5.26006404      14       0      -6      -5       0      0.00000000      0.00000000      0.00000000    F 0000000000
H               0.90423454     -3.57599748     -3.61815762       1      -1       4       4       0      0.00000000      0.00000000      0.00000000    T 0000000000
H              -0.82749458     -1.83525298     -3.52091850       1       1       2       4       0      0.00000000      0.00000000      0.00000000    F 0000000000
H              -0.85876956     -3.58599824     -1.83345954       1       1       4       2       0      0.00000000      0.00000000      0.00000000    F 0000000000
H               1.85978034      0.82182320     -3.62906280       1      -2      -1       4       0      0.00000000      0.00000000      0.00000000    T 0000000000
H               3.61125380     -0.86330530     -3.63636020       1      -4       1       4       0      0.00000000      0.00000000      0.00000000    T 0000000000
H               1.84990586     -3.60126778      0.88080432       1      -2       4      -1       0      0.00000000      0.00000000      0.00000000    T 0000000000
H               3.62496860     -3.59652810     -0.87443708       1      -4       4       1       0      0.00000000      0.00000000      0.00000000    T 0000000000
H              -3.66008698      0.90336356     -3.54184666       1       4      -1       4       0      0.00000000      0.00000000      0.00000000    F 0000000000
H              -1.81605094     -0.87613328     -3.52478610       1       2       1       4       0      0.00000000      0.00000000      0.00000000    F 0000000000
H              -3.66372644     -0.88199056     -1.83274080       1       4       1       2       0      0.00000000      0.00000000      0.00000000    F 0000000000
H               0.88607860      1.81926162     -3.63173778       1      -1      -2       4       0      0.00000000      0.00000000      0.00000000    T 0000000000
H              -0.89430924      3.54073610     -3.62013476       1       1      -4       4       0      0.00000000      0.00000000      0.00000000    F 0000000000
H              -3.60968938      1.78410408      0.85961854       1       4      -2      -1       0      0.00000000      0.00000000      0.00000000    F 0000000000
H              -3.56003450      3.52998866     -0.87295912       1       4      -4       1       0      0.00000000      0.00000000      0.00000000    F 0000000000
H              -3.63410718     -3.57306136      0.87350164       1       4       4      -1       0      0.00000000      0.00000000      0.00000000    F 0000000000
H              -1.82396786     -3.59706886     -0.86513966       1       2       4       1       0      0.00000000      0.00000000      0.00000000    F 0000000000
H              -3.64036816     -1.85218066     -0.86055332       1       4       2       1       0      0.00000000      0.00000000      0.00000000    F 0000000000
H              -3.59900882      0.82912632      1.79627580       1       4      -1      -2       0      0.00000000      0.00000000      0.00000000    F 0000000000
H              -3.57815898     -0.85088432      3.62298618       1       4       1      -4       0      0.00000000      0.00000000      0.00000000    F 0000000000
H               0.86235226     -3.59998210      1.87009878       1      -1       4      -2       0      0.00000000      0.00000000      0.00000000    T 0000000000
H              -0.85617158     -3.60957212      3.62782024       1       1       4      -4       0      0.00000000      0.00000000      0.00000000    F 0000000000
H               6.28536106      1.84096440     -3.52144034       1      -6      -2       4       0      0.00000000      0.00000000      0.00000000    T 0000000000
H               4.54437280      3.60062736     -3.63130878       1      -5      -4       4       0      0.00000000      0.00000000      0.00000000    T 0000000000
H               6.37261020      3.52236302     -1.83397038       1      -6      -4       2       0      0.00000000      0.00000000      0.00000000    T 0000000000
H               6.27251592     -0.88577214     -0.84836290       1      -6       1       1       0      0.00000000      0.00000000      0.00000000    T 0000000000
H               6.31374942      0.83509580      0.86257930       1      -6      -1      -1       0      0.00000000      0.00000000      0.00000000    T 0000000000
H               1.85604980      6.30991196     -3.58937876       1      -2      -6       4       0      0.00000000      0.00000000      0.00000000    T 0000000000
H               3.54758470      4.58152816     -3.61906842       1      -4      -5       4       0      0.00000000      0.00000000      0.00000000    T 0000000000
H               3.59223876      6.29004618     -1.81114560       1      -4      -6       2       0      0.00000000      0.00000000      0.00000000    T 0000000000
H              -0.85438298      6.27746944     -0.84727368       1       1      -6       1       0      0.00000000      0.00000000      0.00000000    F 0000000000
H               0.86974756      6.26286496      0.90150280       1      -1      -6      -1       0      0.00000000      0.00000000      0.00000000    T 0000000000
H               4.57917614      6.31288482     -0.88151382       1      -5      -6       1       0      0.00000000      0.00000000      0.00000000    T 0000000000
H               6.36275948      4.52610224     -0.89209824       1      -6      -5       1       0      0.00000000      0.00000000      0.00000000    T 0000000000
H               6.27813186      6.34675712      0.86359218       1      -6      -6      -1       0      0.00000000      0.00000000      0.00000000    T 0000000000
H               1.82303572      6.29093080      1.84397950       1      -2      -6      -2       0      0.00000000      0.00000000      0.00000000    T 0000000000
H               3.54898368      6.33890180      3.62003202       1      -4      -6      -4       0      0.00000000      0.00000000      0.00000000    T 0000000000
H               6.30505810      1.80374414      1.82979852       1      -6      -2      -2       0      0.00000000      0.00000000      0.00000000    T 0000000000
H               6.27497354      3.63820842      3.61963602       1      -6      -4      -4       0      0.00000000      0.00000000      0.00000000    T 0000000000
H               6.29412256     -3.59382804      1.87067012       1      -6       4      -2       0      0.00000000      0.00000000      0.00000000    T 0000000000
H               4.54605206     -3.58446902      3.65685782       1      -5       4      -4       0      0.00000000      0.00000000      0.00000000    T 0000000000
H               6.34994514     -1.83209004      3.67426752       1      -6       2      -4       0      0.00000000      0.00000000      0.00000000    T 0000000000
H              -0.83890774     -0.88258632      6.38316558       1       1       1      -6       0      0.00000000      0.00000000      0.00000000    F 0000000000
H               0.87845010      0.85866484      6.28616208       1      -1      -1      -6       0      0.00000000      0.00000000      0.00000000    T 0000000000
H               1.87206778     -3.62859684      6.30249730       1      -2       4      -6       0      0.00000000      0.00000000      0.00000000    T 0000000000
H               3.55914218     -3.60523130      4.60373606       1      -4       4      -5       0      0.00000000      0.00000000      0.00000000    T 0000000000
H               3.60917040     -1.83172946      6.29543552       1      -4       2      -6       0      0.00000000      0.00000000      0.00000000    T 0000000000
H               1.84535802      1.85757638      6.30640120       1      -2      -2      -6       0      0.00000000      0.00000000      0.00000000    T 0000000000
H               3.55126398      3.65548502      6.27647592       1      -4      -4      -6       0      0.00000000      0.00000000      0.00000000    T 0000000000
H               4.58954034     -0.84461784      6.32430370       1      -5       1      -6       0      0.00000000      0.00000000      0.00000000    T 0000000000
H               6.34340520     -0.86574026      4.65001394       1      -6       1      -5       0      0.00000000      0.00000000      0.00000000    T 0000000000
H               6.28496088      0.87875656      6.41154404       1      -6      -1      -6       0      0.00000000      0.00000000      0.00000000    T 0000000000
H              -3.60536682      6.34127714      1.83233248       1       4      -6      -2       0      0.00000000      0.00000000      0.00000000    F 0000000000
H              -3.60047864      4.60920196      3.59905700       1       4      -5      -4       0      0.00000000      0.00000000      0.00000000    F 0000000000
H              -1.78962080      6.29307514      3.60018912       1       2      -6      -4       0      0.00000000      0.00000000      0.00000000    F 0000000000
H              -3.65881010      1.85278896      6.38835758       1       4      -2      -6       0      0.00000000      0.00000000      0.00000000    F 0000000000
H              -3.65130040      3.62276706      4.58995460       1       4      -4      -5       0      0.00000000      0.00000000      0.00000000    F 0000000000
H              -1.87780384      3.53601754      6.32001722       1       2      -4      -6       0      0.00000000      0.00000000      0.00000000    F 0000000000
H              -0.85552764      6.31248354      4.54270124       1       1      -6      -5       0      0.00000000      0.00000000      0.00000000    F 0000000000
H              -0.89288892      4.54186084      6.27163174       1       1      -5      -6       0      0.00000000      0.00000000      0.00000000    F 0000000000
H               0.90186976      6.34667902      6.25979332       1      -1      -6      -6       0      0.00000000      0.00000000      0.00000000    T 0000000000
